LAMMPS (30 Nov 2010)
log out.lammps.main.9.3.16
