<?xml version="1.0" encoding="ISO-8859-1"?>
<modeling>
 <generator>
  <i name="program" type="string">vasp</i>
  <i name="version" type="string">4.6.35 </i>
  <i name="subversion" type="string">3Apr08 complex  parallel</i>
  <i name="platform" type="string">LinuxIFC</i>
  <i name="date" type="string">2011 05 26</i>
  <i name="time" type="string">19:24:11</i>
 </generator>
 <incar>
  <i type="string" name="PREC">accurate</i>
  <i type="int" name="IALGO">    38</i>
  <i type="logical" name="ADDGRID"> T  </i>
  <i type="int" name="NELMIN">     5</i>
  <i name="EDIFF">      0.00000001</i>
  <i type="int" name="IBRION">    -1</i>
  <i name="ENCUT">    500.00000000</i>
  <i type="logical" name="LREAL"> F  </i>
  <i type="int" name="ISMEAR">    -1</i>
  <i name="SIGMA">      0.20000000</i>
  <i type="logical" name="LWAVE"> F  </i>
  <i type="logical" name="LCHARG"> F  </i>
 </incar>
 <kpoints>
  <generation param="Monkhorst-Pack">
   <v type="int" name="divisions">       6       6       9</v>
   <v name="usershift">      0.50000000       0.50000000       0.00000000 </v>
   <v name="genvec1">      0.16666667       0.00000000       0.00000000 </v>
   <v name="genvec2">      0.00000000       0.16666667       0.00000000 </v>
   <v name="genvec3">      0.00000000       0.00000000       0.11111111 </v>
   <v name="shift">      0.00000000       0.00000000       0.00000000 </v>
  </generation>
  <varray name="kpointlist" >
   <v>       0.00000000       0.00000000       0.00000000 </v>
   <v>       0.16666667       0.00000000       0.00000000 </v>
   <v>       0.33333333       0.00000000       0.00000000 </v>
   <v>       0.50000000       0.00000000       0.00000000 </v>
   <v>       0.00000000       0.16666667       0.00000000 </v>
   <v>       0.16666667       0.16666667       0.00000000 </v>
   <v>       0.33333333       0.16666667       0.00000000 </v>
   <v>       0.50000000       0.16666667       0.00000000 </v>
   <v>      -0.33333333       0.16666667       0.00000000 </v>
   <v>       0.00000000       0.33333333       0.00000000 </v>
   <v>       0.16666667       0.33333333       0.00000000 </v>
   <v>       0.33333333       0.33333333       0.00000000 </v>
   <v>       0.00000000       0.50000000       0.00000000 </v>
   <v>       0.00000000       0.00000000       0.11111111 </v>
   <v>       0.16666667       0.00000000       0.11111111 </v>
   <v>       0.33333333       0.00000000       0.11111111 </v>
   <v>       0.50000000       0.00000000       0.11111111 </v>
   <v>      -0.33333333       0.00000000       0.11111111 </v>
   <v>      -0.16666667       0.00000000       0.11111111 </v>
   <v>       0.00000000       0.16666667       0.11111111 </v>
   <v>       0.16666667       0.16666667       0.11111111 </v>
   <v>       0.33333333       0.16666667       0.11111111 </v>
   <v>       0.50000000       0.16666667       0.11111111 </v>
   <v>      -0.33333333       0.16666667       0.11111111 </v>
   <v>       0.00000000       0.33333333       0.11111111 </v>
   <v>       0.16666667       0.33333333       0.11111111 </v>
   <v>       0.33333333       0.33333333       0.11111111 </v>
   <v>      -0.16666667       0.33333333       0.11111111 </v>
   <v>       0.00000000       0.50000000       0.11111111 </v>
   <v>      -0.33333333       0.50000000       0.11111111 </v>
   <v>      -0.16666667       0.50000000       0.11111111 </v>
   <v>       0.50000000      -0.33333333       0.11111111 </v>
   <v>      -0.33333333      -0.33333333       0.11111111 </v>
   <v>       0.33333333      -0.16666667       0.11111111 </v>
   <v>       0.00000000       0.00000000       0.22222222 </v>
   <v>       0.16666667       0.00000000       0.22222222 </v>
   <v>       0.33333333       0.00000000       0.22222222 </v>
   <v>       0.50000000       0.00000000       0.22222222 </v>
   <v>      -0.33333333       0.00000000       0.22222222 </v>
   <v>      -0.16666667       0.00000000       0.22222222 </v>
   <v>       0.00000000       0.16666667       0.22222222 </v>
   <v>       0.16666667       0.16666667       0.22222222 </v>
   <v>       0.33333333       0.16666667       0.22222222 </v>
   <v>       0.50000000       0.16666667       0.22222222 </v>
   <v>      -0.33333333       0.16666667       0.22222222 </v>
   <v>       0.00000000       0.33333333       0.22222222 </v>
   <v>       0.16666667       0.33333333       0.22222222 </v>
   <v>       0.33333333       0.33333333       0.22222222 </v>
   <v>      -0.16666667       0.33333333       0.22222222 </v>
   <v>       0.00000000       0.50000000       0.22222222 </v>
   <v>      -0.33333333       0.50000000       0.22222222 </v>
   <v>      -0.16666667       0.50000000       0.22222222 </v>
   <v>       0.50000000      -0.33333333       0.22222222 </v>
   <v>      -0.33333333      -0.33333333       0.22222222 </v>
   <v>       0.33333333      -0.16666667       0.22222222 </v>
   <v>       0.00000000       0.00000000       0.33333333 </v>
   <v>       0.16666667       0.00000000       0.33333333 </v>
   <v>       0.33333333       0.00000000       0.33333333 </v>
   <v>       0.50000000       0.00000000       0.33333333 </v>
   <v>      -0.33333333       0.00000000       0.33333333 </v>
   <v>      -0.16666667       0.00000000       0.33333333 </v>
   <v>       0.00000000       0.16666667       0.33333333 </v>
   <v>       0.16666667       0.16666667       0.33333333 </v>
   <v>       0.33333333       0.16666667       0.33333333 </v>
   <v>       0.50000000       0.16666667       0.33333333 </v>
   <v>      -0.33333333       0.16666667       0.33333333 </v>
   <v>       0.00000000       0.33333333       0.33333333 </v>
   <v>       0.16666667       0.33333333       0.33333333 </v>
   <v>       0.33333333       0.33333333       0.33333333 </v>
   <v>      -0.16666667       0.33333333       0.33333333 </v>
   <v>       0.00000000       0.50000000       0.33333333 </v>
   <v>      -0.33333333       0.50000000       0.33333333 </v>
   <v>      -0.16666667       0.50000000       0.33333333 </v>
   <v>       0.50000000      -0.33333333       0.33333333 </v>
   <v>      -0.33333333      -0.33333333       0.33333333 </v>
   <v>       0.33333333      -0.16666667       0.33333333 </v>
   <v>       0.00000000       0.00000000       0.44444444 </v>
   <v>       0.16666667       0.00000000       0.44444444 </v>
   <v>       0.33333333       0.00000000       0.44444444 </v>
   <v>       0.50000000       0.00000000       0.44444444 </v>
   <v>      -0.33333333       0.00000000       0.44444444 </v>
   <v>      -0.16666667       0.00000000       0.44444444 </v>
   <v>       0.00000000       0.16666667       0.44444444 </v>
   <v>       0.16666667       0.16666667       0.44444444 </v>
   <v>       0.33333333       0.16666667       0.44444444 </v>
   <v>       0.50000000       0.16666667       0.44444444 </v>
   <v>      -0.33333333       0.16666667       0.44444444 </v>
   <v>       0.00000000       0.33333333       0.44444444 </v>
   <v>       0.16666667       0.33333333       0.44444444 </v>
   <v>       0.33333333       0.33333333       0.44444444 </v>
   <v>      -0.16666667       0.33333333       0.44444444 </v>
   <v>       0.00000000       0.50000000       0.44444444 </v>
   <v>      -0.33333333       0.50000000       0.44444444 </v>
   <v>      -0.16666667       0.50000000       0.44444444 </v>
   <v>       0.50000000      -0.33333333       0.44444444 </v>
   <v>      -0.33333333      -0.33333333       0.44444444 </v>
   <v>       0.33333333      -0.16666667       0.44444444 </v>
  </varray>
  <varray name="weights" >
   <v>       0.00308642 </v>
   <v>       0.01234568 </v>
   <v>       0.01234568 </v>
   <v>       0.00617284 </v>
   <v>       0.00617284 </v>
   <v>       0.01234568 </v>
   <v>       0.01234568 </v>
   <v>       0.01234568 </v>
   <v>       0.00617284 </v>
   <v>       0.00617284 </v>
   <v>       0.01234568 </v>
   <v>       0.00617284 </v>
   <v>       0.00308642 </v>
   <v>       0.00617284 </v>
   <v>       0.01234568 </v>
   <v>       0.01234568 </v>
   <v>       0.01234568 </v>
   <v>       0.01234568 </v>
   <v>       0.01234568 </v>
   <v>       0.01234568 </v>
   <v>       0.01234568 </v>
   <v>       0.01234568 </v>
   <v>       0.01234568 </v>
   <v>       0.00617284 </v>
   <v>       0.01234568 </v>
   <v>       0.01234568 </v>
   <v>       0.00617284 </v>
   <v>       0.01234568 </v>
   <v>       0.00617284 </v>
   <v>       0.01234568 </v>
   <v>       0.01234568 </v>
   <v>       0.01234568 </v>
   <v>       0.00617284 </v>
   <v>       0.00617284 </v>
   <v>       0.00617284 </v>
   <v>       0.01234568 </v>
   <v>       0.01234568 </v>
   <v>       0.01234568 </v>
   <v>       0.01234568 </v>
   <v>       0.01234568 </v>
   <v>       0.01234568 </v>
   <v>       0.01234568 </v>
   <v>       0.01234568 </v>
   <v>       0.01234568 </v>
   <v>       0.00617284 </v>
   <v>       0.01234568 </v>
   <v>       0.01234568 </v>
   <v>       0.00617284 </v>
   <v>       0.01234568 </v>
   <v>       0.00617284 </v>
   <v>       0.01234568 </v>
   <v>       0.01234568 </v>
   <v>       0.01234568 </v>
   <v>       0.00617284 </v>
   <v>       0.00617284 </v>
   <v>       0.00617284 </v>
   <v>       0.01234568 </v>
   <v>       0.01234568 </v>
   <v>       0.01234568 </v>
   <v>       0.01234568 </v>
   <v>       0.01234568 </v>
   <v>       0.01234568 </v>
   <v>       0.01234568 </v>
   <v>       0.01234568 </v>
   <v>       0.01234568 </v>
   <v>       0.00617284 </v>
   <v>       0.01234568 </v>
   <v>       0.01234568 </v>
   <v>       0.00617284 </v>
   <v>       0.01234568 </v>
   <v>       0.00617284 </v>
   <v>       0.01234568 </v>
   <v>       0.01234568 </v>
   <v>       0.01234568 </v>
   <v>       0.00617284 </v>
   <v>       0.00617284 </v>
   <v>       0.00617284 </v>
   <v>       0.01234568 </v>
   <v>       0.01234568 </v>
   <v>       0.01234568 </v>
   <v>       0.01234568 </v>
   <v>       0.01234568 </v>
   <v>       0.01234568 </v>
   <v>       0.01234568 </v>
   <v>       0.01234568 </v>
   <v>       0.01234568 </v>
   <v>       0.00617284 </v>
   <v>       0.01234568 </v>
   <v>       0.01234568 </v>
   <v>       0.00617284 </v>
   <v>       0.01234568 </v>
   <v>       0.00617284 </v>
   <v>       0.01234568 </v>
   <v>       0.01234568 </v>
   <v>       0.01234568 </v>
   <v>       0.00617284 </v>
   <v>       0.00617284 </v>
  </varray>
 </kpoints>
 <parameters>
  <separator name="general" >
   <i type="string" name="SYSTEM">unknown system</i>
   <i type="logical" name="LCOMPAT"> F  </i>
  </separator>
  <separator name="electronic" >
   <i type="string" name="PREC">accura</i>
   <i name="ENMAX">    500.00000000</i>
   <i name="ENAUG">    535.51400000</i>
   <i name="EDIFF">      0.00000001</i>
   <i type="int" name="IALGO">    38</i>
   <i type="int" name="IWAVPR">    10</i>
   <i type="int" name="NBANDS">   154</i>
   <i name="NELECT">    252.00000000</i>
   <separator name="electronic smearing" >
    <i type="int" name="ISMEAR">    -1</i>
    <i name="SIGMA">      0.20000000</i>
   </separator>
   <separator name="electronic projectors" >
    <i type="logical" name="LREAL"> F  </i>
    <v name="ROPT">      0.00000000      0.00000000</v>
    <i type="int" name="LMAXPAW">  -100</i>
    <i type="int" name="LMAXMIX">     2</i>
   </separator>
   <separator name="electronic startup" >
    <i type="int" name="ISTART">     0</i>
    <i type="int" name="ICHARG">     2</i>
    <i type="int" name="INIWAV">     1</i>
   </separator>
   <separator name="electronic spin" >
    <i type="int" name="ISPIN">     1</i>
    <i type="logical" name="LNONCOLLINEAR"> F  </i>
    <v name="MAGMOM">      1.00000000      1.00000000      1.00000000      1.00000000      1.00000000      1.00000000      1.00000000      1.00000000      1.00000000      1.00000000      1.00000000      1.00000000      1.00000000      1.00000000      1.00000000      1.00000000      1.00000000      1.00000000      1.00000000      1.00000000
      1.00000000      1.00000000      1.00000000      1.00000000      1.00000000      1.00000000      1.00000000      1.00000000      1.00000000      1.00000000      1.00000000      1.00000000      1.00000000      1.00000000      1.00000000      1.00000000      1.00000000      1.00000000      1.00000000      1.00000000
      1.00000000      1.00000000      1.00000000      1.00000000      1.00000000      1.00000000      1.00000000      1.00000000      1.00000000      1.00000000      1.00000000      1.00000000      1.00000000      1.00000000</v>
    <i name="NUPDOWN">     -1.00000000</i>
    <i type="logical" name="LSORBIT"> F  </i>
    <v name="SAXIS">      0.00000000      0.00000000      1.00000000</v>
    <i type="logical" name="LSPIRAL"> F  </i>
    <v name="QSPIRAL">      0.00000000      0.00000000      0.00000000</v>
    <i type="logical" name="LZEROZ"> F  </i>
   </separator>
   <separator name="electronic exchange-correlation" >
    <i type="string" name="GGA">--</i>
    <i type="int" name="VOSKOWN">     0</i>
    <i type="logical" name="LASPH"> F  </i>
    <i type="logical" name="LMETAGGA"> F  </i>
    <i type="string" name="GGA2">--</i>
   </separator>
   <separator name="electronic convergence" >
    <i type="int" name="NELM">    60</i>
    <i type="int" name="NELMDL">     0</i>
    <i type="int" name="NELMIN">     5</i>
    <i name="ENINI">    500.00000000</i>
    <separator name="electronic convergence detail" >
     <i type="logical" name="LDIAG"> T  </i>
     <i name="WEIMIN">      0.00000000</i>
     <i name="EBREAK">      0.00000000</i>
     <i name="DEPER">      0.30000000</i>
     <i type="int" name="NRMM">     4</i>
     <i name="TIME">      0.10000000</i>
    </separator>
   </separator>
   <separator name="electronic mixer" >
    <i name="AMIX">      0.40000000</i>
    <i name="BMIX">      1.00000000</i>
    <i name="AMIN">      0.10000000</i>
    <i name="AMIX_MAG">      1.60000000</i>
    <i name="BMIX_MAG">      1.00000000</i>
    <separator name="electronic mixer details" >
     <i type="int" name="IMIX">     4</i>
     <i type="int" name="MAXMIX">   -45</i>
     <i name="WC">    100.00000000</i>
     <i type="int" name="INIMIX">     1</i>
     <i type="int" name="MIXPRE">     1</i>
     <i type="int" name="MREMOVE">     5</i>
    </separator>
   </separator>
   <separator name="electronic dipolcorrection" >
    <i type="int" name="IDIPOL">     0</i>
    <i type="logical" name="LDIPOL"> F  </i>
    <v name="DIPOL">   -100.00000000</v>
    <i name="EFIELD">      0.00000000</i>
   </separator>
  </separator>
  <separator name="grids" >
   <i type="int" name="NGX">    70</i>
   <i type="int" name="NGY">    70</i>
   <i type="int" name="NGZ">    54</i>
   <i type="int" name="NGXF">   140</i>
   <i type="int" name="NGYF">   140</i>
   <i type="int" name="NGZF">   108</i>
   <i type="logical" name="ADDGRID"> T  </i>
  </separator>
  <separator name="ionic" >
   <i type="int" name="NSW">     0</i>
   <i type="int" name="IBRION">    -1</i>
   <i type="int" name="ISIF">     2</i>
   <i name="PSTRESS">      0.00000000</i>
   <i name="EDIFFG">      0.00000010</i>
   <i type="int" name="NFREE">     0</i>
   <i name="POTIM">      0.50000000</i>
   <i name="SMASS">     -3.00000000</i>
  </separator>
  <separator name="ionic md" >
   <i name="TEBEG">      0.00010000</i>
   <i name="TEEND">      0.00010000</i>
   <i type="int" name="NBLOCK">     1</i>
   <i type="int" name="KBLOCK">     1</i>
   <i type="int" name="NPACO">   256</i>
   <i name="APACO">     16.00000000</i>
  </separator>
  <separator name="symmetry" >
   <i type="int" name="ISYM">     2</i>
   <i name="SYMPREC">      0.00001000</i>
  </separator>
  <separator name="dos" >
   <i type="logical" name="LORBIT"> F  </i>
   <v name="RWIGS">     -1.00000000     -1.00000000</v>
   <i type="int" name="NEDOS">   301</i>
   <i name="EMIN">     10.00000000</i>
   <i name="EMAX">    -10.00000000</i>
  </separator>
  <separator name="writing" >
   <i type="int" name="NWRITE">     2</i>
   <i type="logical" name="LWAVE"> F  </i>
   <i type="logical" name="LCHARG"> F  </i>
   <i type="logical" name="LPARD"> F  </i>
   <i type="logical" name="LVTOT"> F  </i>
   <i type="logical" name="LELF"> F  </i>
   <i type="logical" name="LOPTICS"> F  </i>
   <v name="STM">      0.00000000      0.00000000      0.00000000      0.00000000      0.00000000</v>
  </separator>
  <separator name="performance" >
   <i type="int" name="NPAR">     8</i>
   <i type="int" name="NSIM">     4</i>
   <i type="int" name="NBLK">   256</i>
   <i type="logical" name="LPLANE"> T  </i>
   <i type="logical" name="LCRITICAL_MEM"> F  </i>
   <i type="logical" name="LSCALAPACK"> F  </i>
   <i type="logical" name="LSCALU"> F  </i>
   <i type="logical" name="LASYNC"> F  </i>
  </separator>
  <separator name="miscellaneous" >
   <i type="int" name="IDIOT">     3</i>
   <i type="logical" name="LMUSIC"> F  </i>
   <v name="POMASS">     24.30500000     10.81100000</v>
   <i type="logical" name="LCORR"> T  </i>
  </separator>
  <i type="logical" name="LREAL_COMPAT"> F  </i>
  <i type="logical" name="GGA_COMPAT"> T  </i>
  <i type="logical" name="LBERRY"> F  </i>
  <i type="int" name="ICORELEVEL">     0</i>
  <i type="logical" name="LDAU"> F  </i>
  <i type="int" name="I_CONSTRAINED_M">     0</i>
 </parameters>
 <atominfo>
  <atoms>      54</atoms>
  <types>       2</types>
  <array name="atoms" >
   <dimension dim="1">ion</dimension>
   <field type="string">element</field>
   <field type="int">atomtype</field>
   <set>
    <rc><c>Mg</c><c>   1</c></rc>
    <rc><c>Mg</c><c>   1</c></rc>
    <rc><c>Mg</c><c>   1</c></rc>
    <rc><c>Mg</c><c>   1</c></rc>
    <rc><c>Mg</c><c>   1</c></rc>
    <rc><c>Mg</c><c>   1</c></rc>
    <rc><c>Mg</c><c>   1</c></rc>
    <rc><c>Mg</c><c>   1</c></rc>
    <rc><c>Mg</c><c>   1</c></rc>
    <rc><c>Mg</c><c>   1</c></rc>
    <rc><c>Mg</c><c>   1</c></rc>
    <rc><c>Mg</c><c>   1</c></rc>
    <rc><c>Mg</c><c>   1</c></rc>
    <rc><c>Mg</c><c>   1</c></rc>
    <rc><c>Mg</c><c>   1</c></rc>
    <rc><c>Mg</c><c>   1</c></rc>
    <rc><c>Mg</c><c>   1</c></rc>
    <rc><c>Mg</c><c>   1</c></rc>
    <rc><c>B </c><c>   2</c></rc>
    <rc><c>B </c><c>   2</c></rc>
    <rc><c>B </c><c>   2</c></rc>
    <rc><c>B </c><c>   2</c></rc>
    <rc><c>B </c><c>   2</c></rc>
    <rc><c>B </c><c>   2</c></rc>
    <rc><c>B </c><c>   2</c></rc>
    <rc><c>B </c><c>   2</c></rc>
    <rc><c>B </c><c>   2</c></rc>
    <rc><c>B </c><c>   2</c></rc>
    <rc><c>B </c><c>   2</c></rc>
    <rc><c>B </c><c>   2</c></rc>
    <rc><c>B </c><c>   2</c></rc>
    <rc><c>B </c><c>   2</c></rc>
    <rc><c>B </c><c>   2</c></rc>
    <rc><c>B </c><c>   2</c></rc>
    <rc><c>B </c><c>   2</c></rc>
    <rc><c>B </c><c>   2</c></rc>
    <rc><c>B </c><c>   2</c></rc>
    <rc><c>B </c><c>   2</c></rc>
    <rc><c>B </c><c>   2</c></rc>
    <rc><c>B </c><c>   2</c></rc>
    <rc><c>B </c><c>   2</c></rc>
    <rc><c>B </c><c>   2</c></rc>
    <rc><c>B </c><c>   2</c></rc>
    <rc><c>B </c><c>   2</c></rc>
    <rc><c>B </c><c>   2</c></rc>
    <rc><c>B </c><c>   2</c></rc>
    <rc><c>B </c><c>   2</c></rc>
    <rc><c>B </c><c>   2</c></rc>
    <rc><c>B </c><c>   2</c></rc>
    <rc><c>B </c><c>   2</c></rc>
    <rc><c>B </c><c>   2</c></rc>
    <rc><c>B </c><c>   2</c></rc>
    <rc><c>B </c><c>   2</c></rc>
    <rc><c>B </c><c>   2</c></rc>
   </set>
  </array>
  <array name="atomtypes" >
   <dimension dim="1">type</dimension>
   <field type="int">atomspertype</field>
   <field type="string">element</field>
   <field>mass</field>
   <field>valence</field>
   <field type="string">pseudopotential</field>
   <set>
    <rc><c>  18</c><c>Mg</c><c>     24.30500000</c><c>      8.00000000</c><c> PAW_PBE Mg_pv 06Sep2000                </c></rc>
    <rc><c>  36</c><c>B </c><c>     10.81100000</c><c>      3.00000000</c><c> PAW_PBE B 06Sep2000                    </c></rc>
   </set>
  </array>
 </atominfo>
 <structure name="initialpos" >
  <crystal>
   <varray name="basis" >
    <v>       9.22926428       0.00000000       0.00000000 </v>
    <v>      -4.61463214       7.99277733       0.00000000 </v>
    <v>       0.00000000       0.00000000       7.04667455 </v>
   </varray>
   <i name="volume">    519.81524302</i>
   <varray name="rec_basis" >
    <v>       0.10835100       0.06255648       0.00000000 </v>
    <v>       0.00000000       0.12511296       0.00000000 </v>
    <v>       0.00000000       0.00000000       0.14191091 </v>
   </varray>
  </crystal>
  <varray name="positions" >
   <v>       0.00086119       0.00000000       0.00086119 </v>
   <v>       0.33333333       0.00000000       0.00000000 </v>
   <v>       0.66666667       0.00000000       0.00000000 </v>
   <v>       0.00000000       0.33333333       0.00000000 </v>
   <v>       0.33333333       0.33333333       0.00000000 </v>
   <v>       0.66666667       0.33333333       0.00000000 </v>
   <v>       0.00000000       0.66666667       0.00000000 </v>
   <v>       0.33333333       0.66666667       0.00000000 </v>
   <v>       0.66666667       0.66666667       0.00000000 </v>
   <v>       0.00000000       0.00000000       0.50000000 </v>
   <v>       0.33333333       0.00000000       0.50000000 </v>
   <v>       0.66666667       0.00000000       0.50000000 </v>
   <v>       0.00000000       0.33333333       0.50000000 </v>
   <v>       0.33333333       0.33333333       0.50000000 </v>
   <v>       0.66666667       0.33333333       0.50000000 </v>
   <v>       0.00000000       0.66666667       0.50000000 </v>
   <v>       0.33333333       0.66666667       0.50000000 </v>
   <v>       0.66666667       0.66666667       0.50000000 </v>
   <v>       0.11111111       0.22222222       0.25000000 </v>
   <v>       0.44444444       0.22222222       0.25000000 </v>
   <v>       0.77777778       0.22222222       0.25000000 </v>
   <v>       0.11111111       0.55555556       0.25000000 </v>
   <v>       0.44444444       0.55555556       0.25000000 </v>
   <v>       0.77777778       0.55555556       0.25000000 </v>
   <v>       0.11111111       0.88888889       0.25000000 </v>
   <v>       0.44444444       0.88888889       0.25000000 </v>
   <v>       0.77777778       0.88888889       0.25000000 </v>
   <v>       0.11111111       0.22222222       0.75000000 </v>
   <v>       0.44444444       0.22222222       0.75000000 </v>
   <v>       0.77777778       0.22222222       0.75000000 </v>
   <v>       0.11111111       0.55555556       0.75000000 </v>
   <v>       0.44444444       0.55555556       0.75000000 </v>
   <v>       0.77777778       0.55555556       0.75000000 </v>
   <v>       0.11111111       0.88888889       0.75000000 </v>
   <v>       0.44444444       0.88888889       0.75000000 </v>
   <v>       0.77777778       0.88888889       0.75000000 </v>
   <v>       0.22222222       0.11111111       0.25000000 </v>
   <v>       0.55555556       0.11111111       0.25000000 </v>
   <v>       0.88888889       0.11111111       0.25000000 </v>
   <v>       0.22222222       0.44444444       0.25000000 </v>
   <v>       0.55555556       0.44444444       0.25000000 </v>
   <v>       0.88888889       0.44444444       0.25000000 </v>
   <v>       0.22222222       0.77777778       0.25000000 </v>
   <v>       0.55555556       0.77777778       0.25000000 </v>
   <v>       0.88888889       0.77777778       0.25000000 </v>
   <v>       0.22222222       0.11111111       0.75000000 </v>
   <v>       0.55555556       0.11111111       0.75000000 </v>
   <v>       0.88888889       0.11111111       0.75000000 </v>
   <v>       0.22222222       0.44444444       0.75000000 </v>
   <v>       0.55555556       0.44444444       0.75000000 </v>
   <v>       0.88888889       0.44444444       0.75000000 </v>
   <v>       0.22222222       0.77777778       0.75000000 </v>
   <v>       0.55555556       0.77777778       0.75000000 </v>
   <v>       0.88888889       0.77777778       0.75000000 </v>
  </varray>
 </structure>
 <calculation>
  <scstep>
   <time name="dav">  320.65  322.28</time>
   <time name="total">  322.04  323.69</time>
   <energy>
    <i name="alphaZ">    746.83512423</i>
    <i name="ewald"> -13044.41286647</i>
    <i name="hartreedc">  -4938.24636905</i>
    <i name="XCdc">    921.36263542</i>
    <i name="pawpsdc">  10589.82125549</i>
    <i name="pawaedc"> -12528.22584987</i>
    <i name="eentropy">     -0.31032186</i>
    <i name="bandstr">    384.05485052</i>
    <i name="atom">  21580.70085878</i>
    <i name="e_fr_energy">   3711.57931718</i>
    <i name="e_wo_entrp">   3711.88963905</i>
    <i name="e_0_energy">   3711.73447811</i>
   </energy>
  </scstep>
  <scstep>
   <time name="dav">  313.11  314.35</time>
   <time name="total">  313.15  314.39</time>
   <energy>
    <i name="e_fr_energy">    352.60034500</i>
    <i name="e_wo_entrp">    353.27447245</i>
    <i name="e_0_energy">    352.93740872</i>
   </energy>
  </scstep>
  <scstep>
   <time name="dav">  342.89  344.27</time>
   <time name="total">  342.93  344.31</time>
   <energy>
    <i name="e_fr_energy">   -259.92624023</i>
    <i name="e_wo_entrp">   -258.96410063</i>
    <i name="e_0_energy">   -259.44517043</i>
   </energy>
  </scstep>
  <scstep>
   <time name="dav">  346.24  347.62</time>
   <time name="total">  346.28  347.66</time>
   <energy>
    <i name="e_fr_energy">   -307.21748426</i>
    <i name="e_wo_entrp">   -306.23572242</i>
    <i name="e_0_energy">   -306.72660334</i>
   </energy>
  </scstep>
  <scstep>
   <time name="dav">  346.26  347.62</time>
   <time name="total">  367.87  369.34</time>
   <energy>
    <i name="e_fr_energy">   -308.50956238</i>
    <i name="e_wo_entrp">   -307.52719852</i>
    <i name="e_0_energy">   -308.01838045</i>
   </energy>
  </scstep>
  <scstep>
   <time name="dav">  334.00  335.31</time>
   <time name="total">  356.98  358.41</time>
   <energy>
    <i name="e_fr_energy">   -281.41580559</i>
    <i name="e_wo_entrp">   -279.99264123</i>
    <i name="e_0_energy">   -280.70422341</i>
   </energy>
  </scstep>
  <scstep>
   <time name="dav">  355.35  356.80</time>
   <time name="total">  378.34  379.90</time>
   <energy>
    <i name="e_fr_energy">   -277.03768833</i>
    <i name="e_wo_entrp">   -275.45172538</i>
    <i name="e_0_energy">   -276.24470686</i>
   </energy>
  </scstep>
  <scstep>
   <time name="dav">  332.80  334.13</time>
   <time name="total">  355.79  357.22</time>
   <energy>
    <i name="e_fr_energy">   -277.14528028</i>
    <i name="e_wo_entrp">   -275.58979901</i>
    <i name="e_0_energy">   -276.36753965</i>
   </energy>
  </scstep>
  <scstep>
   <time name="dav">  336.67  338.01</time>
   <time name="total">  359.65  361.12</time>
   <energy>
    <i name="e_fr_energy">   -277.01294869</i>
    <i name="e_wo_entrp">   -275.44153604</i>
    <i name="e_0_energy">   -276.22724236</i>
   </energy>
  </scstep>
  <scstep>
   <time name="dav">  380.66  382.21</time>
   <time name="total">  403.66  405.32</time>
   <energy>
    <i name="e_fr_energy">   -277.01378454</i>
    <i name="e_wo_entrp">   -275.44005435</i>
    <i name="e_0_energy">   -276.22691944</i>
   </energy>
  </scstep>
  <scstep>
   <time name="dav">  344.82  346.18</time>
   <time name="total">  367.79  369.28</time>
   <energy>
    <i name="e_fr_energy">   -277.01346262</i>
    <i name="e_wo_entrp">   -275.44060097</i>
    <i name="e_0_energy">   -276.22703180</i>
   </energy>
  </scstep>
  <scstep>
   <time name="dav">  343.75  345.10</time>
   <time name="total">  366.70  368.18</time>
   <energy>
    <i name="e_fr_energy">   -277.01351903</i>
    <i name="e_wo_entrp">   -275.44048357</i>
    <i name="e_0_energy">   -276.22700130</i>
   </energy>
  </scstep>
  <scstep>
   <time name="dav">  345.91  347.27</time>
   <time name="total">  368.92  370.39</time>
   <energy>
    <i name="e_fr_energy">   -277.01350811</i>
    <i name="e_wo_entrp">   -275.44064727</i>
    <i name="e_0_energy">   -276.22707769</i>
   </energy>
  </scstep>
  <scstep>
   <time name="dav">  355.26  356.65</time>
   <time name="total">  378.24  379.75</time>
   <energy>
    <i name="e_fr_energy">   -277.01350886</i>
    <i name="e_wo_entrp">   -275.44067721</i>
    <i name="e_0_energy">   -276.22709303</i>
   </energy>
  </scstep>
  <scstep>
   <time name="dav">  350.25  351.64</time>
   <time name="total">  373.23  374.72</time>
   <energy>
    <i name="e_fr_energy">   -277.01350841</i>
    <i name="e_wo_entrp">   -275.44068633</i>
    <i name="e_0_energy">   -276.22709737</i>
   </energy>
  </scstep>
  <scstep>
   <time name="dav">  317.36  318.60</time>
   <time name="total">  340.36  341.71</time>
   <energy>
    <i name="e_fr_energy">   -277.01350867</i>
    <i name="e_wo_entrp">   -275.44069471</i>
    <i name="e_0_energy">   -276.22710169</i>
   </energy>
  </scstep>
  <scstep>
   <time name="dav">  240.43  241.38</time>
   <time name="total">  263.43  264.49</time>
   <energy>
    <i name="e_fr_energy">   -277.01350857</i>
    <i name="e_wo_entrp">   -275.44069295</i>
    <i name="e_0_energy">   -276.22710076</i>
   </energy>
  </scstep>
  <scstep>
   <time name="dav">  230.38  231.30</time>
   <time name="total">  231.79  232.72</time>
   <energy>
    <i name="alphaZ">    746.83512423</i>
    <i name="ewald"> -13044.41286647</i>
    <i name="hartreedc">  -4824.33488150</i>
    <i name="XCdc">    931.36249243</i>
    <i name="pawpsdc">  11135.94069350</i>
    <i name="pawaedc"> -13086.04649372</i>
    <i name="eentropy">     -1.57281583</i>
    <i name="bandstr">  -3715.48561998</i>
    <i name="atom">  21580.70085878</i>
    <i name="e_fr_energy">   -277.01350857</i>
    <i name="e_wo_entrp">   -275.44069274</i>
    <i name="e_0_energy">   -276.22710065</i>
   </energy>
  </scstep>
  <structure>
   <crystal>
    <varray name="basis" >
     <v>       9.22926428       0.00000000       0.00000000 </v>
     <v>      -4.61463214       7.99277733       0.00000000 </v>
     <v>       0.00000000       0.00000000       7.04667455 </v>
    </varray>
    <i name="volume">    519.81524302</i>
    <varray name="rec_basis" >
     <v>       0.10835100       0.06255648       0.00000000 </v>
     <v>       0.00000000       0.12511296       0.00000000 </v>
     <v>       0.00000000       0.00000000       0.14191091 </v>
    </varray>
   </crystal>
   <varray name="positions" >
    <v>       0.00086119       0.00000000       0.00086119 </v>
    <v>       0.33333333       0.00000000       0.00000000 </v>
    <v>       0.66666667       0.00000000       0.00000000 </v>
    <v>       0.00000000       0.33333333       0.00000000 </v>
    <v>       0.33333333       0.33333333       0.00000000 </v>
    <v>       0.66666667       0.33333333       0.00000000 </v>
    <v>       0.00000000       0.66666667       0.00000000 </v>
    <v>       0.33333333       0.66666667       0.00000000 </v>
    <v>       0.66666667       0.66666667       0.00000000 </v>
    <v>       0.00000000       0.00000000       0.50000000 </v>
    <v>       0.33333333       0.00000000       0.50000000 </v>
    <v>       0.66666667       0.00000000       0.50000000 </v>
    <v>       0.00000000       0.33333333       0.50000000 </v>
    <v>       0.33333333       0.33333333       0.50000000 </v>
    <v>       0.66666667       0.33333333       0.50000000 </v>
    <v>       0.00000000       0.66666667       0.50000000 </v>
    <v>       0.33333333       0.66666667       0.50000000 </v>
    <v>       0.66666667       0.66666667       0.50000000 </v>
    <v>       0.11111111       0.22222222       0.25000000 </v>
    <v>       0.44444444       0.22222222       0.25000000 </v>
    <v>       0.77777778       0.22222222       0.25000000 </v>
    <v>       0.11111111       0.55555556       0.25000000 </v>
    <v>       0.44444444       0.55555556       0.25000000 </v>
    <v>       0.77777778       0.55555556       0.25000000 </v>
    <v>       0.11111111       0.88888889       0.25000000 </v>
    <v>       0.44444444       0.88888889       0.25000000 </v>
    <v>       0.77777778       0.88888889       0.25000000 </v>
    <v>       0.11111111       0.22222222       0.75000000 </v>
    <v>       0.44444444       0.22222222       0.75000000 </v>
    <v>       0.77777778       0.22222222       0.75000000 </v>
    <v>       0.11111111       0.55555556       0.75000000 </v>
    <v>       0.44444444       0.55555556       0.75000000 </v>
    <v>       0.77777778       0.55555556       0.75000000 </v>
    <v>       0.11111111       0.88888889       0.75000000 </v>
    <v>       0.44444444       0.88888889       0.75000000 </v>
    <v>       0.77777778       0.88888889       0.75000000 </v>
    <v>       0.22222222       0.11111111       0.25000000 </v>
    <v>       0.55555556       0.11111111       0.25000000 </v>
    <v>       0.88888889       0.11111111       0.25000000 </v>
    <v>       0.22222222       0.44444444       0.25000000 </v>
    <v>       0.55555556       0.44444444       0.25000000 </v>
    <v>       0.88888889       0.44444444       0.25000000 </v>
    <v>       0.22222222       0.77777778       0.25000000 </v>
    <v>       0.55555556       0.77777778       0.25000000 </v>
    <v>       0.88888889       0.77777778       0.25000000 </v>
    <v>       0.22222222       0.11111111       0.75000000 </v>
    <v>       0.55555556       0.11111111       0.75000000 </v>
    <v>       0.88888889       0.11111111       0.75000000 </v>
    <v>       0.22222222       0.44444444       0.75000000 </v>
    <v>       0.55555556       0.44444444       0.75000000 </v>
    <v>       0.88888889       0.44444444       0.75000000 </v>
    <v>       0.22222222       0.77777778       0.75000000 </v>
    <v>       0.55555556       0.77777778       0.75000000 </v>
    <v>       0.88888889       0.77777778       0.75000000 </v>
   </varray>
  </structure>
  <varray name="forces" >
   <v>      -0.05688579       0.00000000      -0.04364296 </v>
   <v>       0.00743345       0.00000000      -0.00057417 </v>
   <v>       0.00718862       0.00000000      -0.00055442 </v>
   <v>       0.00134704      -0.00338992      -0.00055496 </v>
   <v>       0.00139178       0.00348409      -0.00056594 </v>
   <v>       0.00013438       0.00000147      -0.00000886 </v>
   <v>       0.00139178      -0.00348409      -0.00056594 </v>
   <v>       0.00013438      -0.00000147      -0.00000886 </v>
   <v>       0.00134704       0.00338992      -0.00055496 </v>
   <v>      -0.00045506       0.00000000       0.00462341 </v>
   <v>       0.00006411       0.00000000       0.00031421 </v>
   <v>      -0.00002143       0.00000000       0.00030523 </v>
   <v>      -0.00004599       0.00001826       0.00030792 </v>
   <v>       0.00001129       0.00006337       0.00031198 </v>
   <v>      -0.00000475       0.00000245      -0.00013880 </v>
   <v>       0.00001129      -0.00006337       0.00031198 </v>
   <v>      -0.00000475      -0.00000245      -0.00013880 </v>
   <v>      -0.00004599      -0.00001826       0.00030792 </v>
   <v>      -0.00059281       0.00452104       0.00320848 </v>
   <v>       0.00071949       0.00041469       0.00082572 </v>
   <v>       0.00073726      -0.00042558      -0.00069433 </v>
   <v>       0.00034571       0.00042527       0.00036791 </v>
   <v>      -0.00020821      -0.00010493      -0.00007170 </v>
   <v>       0.00000071       0.00001337       0.00006171 </v>
   <v>       0.00839265      -0.00519508       0.00653469 </v>
   <v>      -0.00039047      -0.00031997       0.00014647 </v>
   <v>       0.00044463       0.00059209       0.00003337 </v>
   <v>      -0.00058161      -0.00448374       0.00317344 </v>
   <v>       0.00071974       0.00041643      -0.00069174 </v>
   <v>       0.00074193      -0.00043025       0.00080336 </v>
   <v>      -0.00019794       0.00011144      -0.00006722 </v>
   <v>       0.00033299      -0.00041777       0.00036828 </v>
   <v>      -0.00000234       0.00001617       0.00005969 </v>
   <v>       0.00038958      -0.00056775       0.00007481 </v>
   <v>      -0.00039083       0.00030672       0.00015209 </v>
   <v>       0.00804382       0.00497337       0.00612798 </v>
   <v>       0.00839265       0.00519508       0.00653469 </v>
   <v>      -0.00039047       0.00031997       0.00014647 </v>
   <v>       0.00044463      -0.00059209       0.00003337 </v>
   <v>       0.00000071      -0.00001337       0.00006171 </v>
   <v>       0.00034571      -0.00042527       0.00036791 </v>
   <v>      -0.00020821       0.00010493      -0.00007170 </v>
   <v>       0.00071949      -0.00041469       0.00082572 </v>
   <v>       0.00073726       0.00042558      -0.00069433 </v>
   <v>      -0.00059281      -0.00452104       0.00320848 </v>
   <v>       0.00038958       0.00056775       0.00007481 </v>
   <v>      -0.00039083      -0.00030672       0.00015209 </v>
   <v>       0.00804382      -0.00497337       0.00612798 </v>
   <v>      -0.00000234      -0.00001617       0.00005969 </v>
   <v>      -0.00019794      -0.00011144      -0.00006722 </v>
   <v>       0.00033299       0.00041777       0.00036828 </v>
   <v>       0.00071974      -0.00041643      -0.00069174 </v>
   <v>       0.00074193       0.00043025       0.00080336 </v>
   <v>      -0.00058161       0.00448374       0.00317344 </v>
  </varray>
  <varray name="stress" >
   <v>       0.75993276       0.00000000       0.00299877 </v>
   <v>       0.00000000       0.75725435       0.00000000 </v>
   <v>       0.00301132       0.00000000       1.93693418 </v>
  </varray>
  <energy>
   <i name="e_fr_energy">   -277.01350857</i>
   <i name="e_wo_entrp">   -276.22710065</i>
   <i name="e_0_energy">     -1.57281583</i>
  </energy>
  <eigenvalues>
   <array>
    <dimension dim="1">band</dimension>
    <dimension dim="2">kpoint</dimension>
    <dimension dim="3">spin</dimension>
    <field>eigene</field>
    <field>occ</field>
    <set>
     <set comment="spin 1">
      <set comment="kpoint 1">
       <r> -35.8875  1.0000</r>
       <r> -35.8874  1.0000</r>
       <r> -35.8873  1.0000</r>
       <r> -35.8872  1.0000</r>
       <r> -35.8871  1.0000</r>
       <r> -35.8871  1.0000</r>
       <r> -35.8867  1.0000</r>
       <r> -35.8866  1.0000</r>
       <r> -35.8865  1.0000</r>
       <r> -35.8865  1.0000</r>
       <r> -35.8863  1.0000</r>
       <r> -35.8863  1.0000</r>
       <r> -35.8852  1.0000</r>
       <r> -35.8852  1.0000</r>
       <r> -35.8851  1.0000</r>
       <r> -35.8851  1.0000</r>
       <r> -35.8844  1.0000</r>
       <r> -35.8844  1.0000</r>
       <r> -35.8843  1.0000</r>
       <r> -35.8843  1.0000</r>
       <r> -35.8644  1.0000</r>
       <r> -35.8643  1.0000</r>
       <r> -35.8642  1.0000</r>
       <r> -35.8642  1.0000</r>
       <r> -35.8641  1.0000</r>
       <r> -35.8641  1.0000</r>
       <r> -35.8637  1.0000</r>
       <r> -35.8637  1.0000</r>
       <r> -35.8636  1.0000</r>
       <r> -35.8636  1.0000</r>
       <r> -35.8634  1.0000</r>
       <r> -35.8634  1.0000</r>
       <r> -35.8568  1.0000</r>
       <r> -35.8568  1.0000</r>
       <r> -35.8563  1.0000</r>
       <r> -35.8563  1.0000</r>
       <r> -35.8489  1.0000</r>
       <r> -35.8441  1.0000</r>
       <r> -35.8441  1.0000</r>
       <r> -35.8439  1.0000</r>
       <r> -35.8439  1.0000</r>
       <r> -35.8437  1.0000</r>
       <r> -35.8437  1.0000</r>
       <r> -35.8415  1.0000</r>
       <r> -35.8414  1.0000</r>
       <r> -35.8413  1.0000</r>
       <r> -35.8371  1.0000</r>
       <r> -35.8371  1.0000</r>
       <r> -35.8369  1.0000</r>
       <r> -35.8369  1.0000</r>
       <r> -35.8368  1.0000</r>
       <r> -35.8368  1.0000</r>
       <r> -35.8347  1.0000</r>
       <r> -35.8347  1.0000</r>
       <r>  -6.4325  1.0000</r>
       <r>  -5.1444  1.0000</r>
       <r>  -4.5186  1.0000</r>
       <r>  -4.5171  1.0000</r>
       <r>  -4.5168  1.0000</r>
       <r>  -4.5168  1.0000</r>
       <r>  -4.5164  1.0000</r>
       <r>  -4.5150  1.0000</r>
       <r>  -3.4106  1.0000</r>
       <r>  -3.4093  1.0000</r>
       <r>  -3.4090  1.0000</r>
       <r>  -3.4090  1.0000</r>
       <r>  -3.4087  1.0000</r>
       <r>  -3.4075  1.0000</r>
       <r>  -1.4294  1.0000</r>
       <r>  -1.2461  1.0000</r>
       <r>  -1.2461  1.0000</r>
       <r>  -1.2450  1.0000</r>
       <r>  -1.2450  1.0000</r>
       <r>  -0.3667  1.0000</r>
       <r>  -0.3667  1.0000</r>
       <r>  -0.3657  1.0000</r>
       <r>  -0.3657  1.0000</r>
       <r>   0.1506  1.0000</r>
       <r>   0.1506  1.0000</r>
       <r>   0.7113  1.0000</r>
       <r>   0.7133  1.0000</r>
       <r>   0.7140  1.0000</r>
       <r>   0.7140  1.0000</r>
       <r>   0.7146  1.0000</r>
       <r>   0.7167  1.0000</r>
       <r>   0.8262  1.0000</r>
       <r>   0.8262  1.0000</r>
       <r>   0.9219  1.0000</r>
       <r>   0.9221  1.0000</r>
       <r>   0.9228  1.0000</r>
       <r>   0.9228  1.0000</r>
       <r>   0.9235  1.0000</r>
       <r>   0.9236  1.0000</r>
       <r>   1.6642  1.0000</r>
       <r>   1.6644  1.0000</r>
       <r>   1.6651  1.0000</r>
       <r>   1.6651  1.0000</r>
       <r>   1.6658  1.0000</r>
       <r>   1.6660  1.0000</r>
       <r>   3.0483  1.0000</r>
       <r>   4.0183  1.0000</r>
       <r>   4.0183  1.0000</r>
       <r>   4.0204  1.0000</r>
       <r>   4.0204  1.0000</r>
       <r>   4.2911  0.9998</r>
       <r>   4.2914  0.9998</r>
       <r>   4.2918  0.9998</r>
       <r>   4.2918  0.9998</r>
       <r>   4.2922  0.9998</r>
       <r>   4.2925  0.9998</r>
       <r>   4.5878  0.9992</r>
       <r>   4.5881  0.9992</r>
       <r>   4.5885  0.9992</r>
       <r>   4.5885  0.9992</r>
       <r>   4.5890  0.9992</r>
       <r>   4.5892  0.9992</r>
       <r>   4.8564  0.9970</r>
       <r>   4.8585  0.9969</r>
       <r>   4.8590  0.9969</r>
       <r>   4.8590  0.9969</r>
       <r>   4.8595  0.9969</r>
       <r>   4.8616  0.9969</r>
       <r>   6.3895  0.1339</r>
       <r>   6.3895  0.1339</r>
       <r>   6.7599  0.0237</r>
       <r>   6.7599  0.0237</r>
       <r>   7.3172  0.0015</r>
       <r>   7.3183  0.0015</r>
       <r>   7.3194  0.0015</r>
       <r>   7.3194  0.0015</r>
       <r>   7.3204  0.0015</r>
       <r>   7.3215  0.0015</r>
       <r>   7.6471  0.0003</r>
       <r>   7.7991  0.0001</r>
       <r>   7.7991  0.0001</r>
       <r>   7.8011  0.0001</r>
       <r>   7.8011  0.0001</r>
       <r>   9.2694  0.0000</r>
       <r>   9.2709  0.0000</r>
       <r>   9.2718  0.0000</r>
       <r>   9.2718  0.0000</r>
       <r>   9.2728  0.0000</r>
       <r>   9.2743  0.0000</r>
       <r>   9.6254  0.0000</r>
       <r>   9.6254  0.0000</r>
       <r>  11.0579  0.0000</r>
       <r>  11.0583  0.0000</r>
       <r>  11.0589  0.0000</r>
       <r>  11.0589  0.0000</r>
       <r>  11.0594  0.0000</r>
       <r>  11.0599  0.0000</r>
       <r>  11.2164  0.0000</r>
       <r>  11.2168  0.0000</r>
       <r>  11.2180  0.0000</r>
       <r>  11.2180  0.0000</r>
       <r>  11.2193  0.0000</r>
       <r>  11.2196  0.0000</r>
       <r>  12.0090  0.0000</r>
       <r>  12.0095  0.0000</r>
       <r>  12.0098  0.0000</r>
      </set>
      <set comment="kpoint 2">
       <r> -35.8926  1.0000</r>
       <r> -35.8918  1.0000</r>
       <r> -35.8900  1.0000</r>
       <r> -35.8900  1.0000</r>
       <r> -35.8892  1.0000</r>
       <r> -35.8892  1.0000</r>
       <r> -35.8888  1.0000</r>
       <r> -35.8887  1.0000</r>
       <r> -35.8879  1.0000</r>
       <r> -35.8879  1.0000</r>
       <r> -35.8841  1.0000</r>
       <r> -35.8841  1.0000</r>
       <r> -35.8834  1.0000</r>
       <r> -35.8833  1.0000</r>
       <r> -35.8809  1.0000</r>
       <r> -35.8809  1.0000</r>
       <r> -35.8806  1.0000</r>
       <r> -35.8801  1.0000</r>
       <r> -35.8801  1.0000</r>
       <r> -35.8799  1.0000</r>
       <r> -35.8656  1.0000</r>
       <r> -35.8656  1.0000</r>
       <r> -35.8655  1.0000</r>
       <r> -35.8650  1.0000</r>
       <r> -35.8649  1.0000</r>
       <r> -35.8648  1.0000</r>
       <r> -35.8640  1.0000</r>
       <r> -35.8640  1.0000</r>
       <r> -35.8634  1.0000</r>
       <r> -35.8634  1.0000</r>
       <r> -35.8626  1.0000</r>
       <r> -35.8620  1.0000</r>
       <r> -35.8580  1.0000</r>
       <r> -35.8575  1.0000</r>
       <r> -35.8571  1.0000</r>
       <r> -35.8566  1.0000</r>
       <r> -35.8487  1.0000</r>
       <r> -35.8450  1.0000</r>
       <r> -35.8444  1.0000</r>
       <r> -35.8443  1.0000</r>
       <r> -35.8434  1.0000</r>
       <r> -35.8433  1.0000</r>
       <r> -35.8430  1.0000</r>
       <r> -35.8415  1.0000</r>
       <r> -35.8415  1.0000</r>
       <r> -35.8413  1.0000</r>
       <r> -35.8380  1.0000</r>
       <r> -35.8374  1.0000</r>
       <r> -35.8374  1.0000</r>
       <r> -35.8365  1.0000</r>
       <r> -35.8364  1.0000</r>
       <r> -35.8361  1.0000</r>
       <r> -35.8348  1.0000</r>
       <r> -35.8348  1.0000</r>
       <r>  -6.3783  1.0000</r>
       <r>  -5.0961  1.0000</r>
       <r>  -5.0938  1.0000</r>
       <r>  -4.7786  1.0000</r>
       <r>  -4.7779  1.0000</r>
       <r>  -4.1542  1.0000</r>
       <r>  -4.1535  1.0000</r>
       <r>  -3.9360  1.0000</r>
       <r>  -3.8461  1.0000</r>
       <r>  -3.6484  1.0000</r>
       <r>  -3.6478  1.0000</r>
       <r>  -3.0766  1.0000</r>
       <r>  -3.0760  1.0000</r>
       <r>  -2.7932  1.0000</r>
       <r>  -1.8440  1.0000</r>
       <r>  -1.8433  1.0000</r>
       <r>  -1.3673  1.0000</r>
       <r>  -0.9321  1.0000</r>
       <r>  -0.9315  1.0000</r>
       <r>  -0.9007  1.0000</r>
       <r>  -0.9005  1.0000</r>
       <r>  -0.1599  1.0000</r>
       <r>  -0.0488  1.0000</r>
       <r>  -0.0487  1.0000</r>
       <r>   0.0824  1.0000</r>
       <r>   0.4008  1.0000</r>
       <r>   0.4009  1.0000</r>
       <r>   0.4303  1.0000</r>
       <r>   0.4314  1.0000</r>
       <r>   0.5264  1.0000</r>
       <r>   0.5266  1.0000</r>
       <r>   0.6458  1.0000</r>
       <r>   1.1012  1.0000</r>
       <r>   1.1022  1.0000</r>
       <r>   1.1724  1.0000</r>
       <r>   1.1726  1.0000</r>
       <r>   1.1874  1.0000</r>
       <r>   1.1876  1.0000</r>
       <r>   1.4158  1.0000</r>
       <r>   1.5056  1.0000</r>
       <r>   1.5057  1.0000</r>
       <r>   2.0583  1.0000</r>
       <r>   2.2132  1.0000</r>
       <r>   2.2134  1.0000</r>
       <r>   2.7353  1.0000</r>
       <r>   3.1008  1.0000</r>
       <r>   3.3994  1.0000</r>
       <r>   3.4005  1.0000</r>
       <r>   3.9065  1.0000</r>
       <r>   3.9069  1.0000</r>
       <r>   4.0458  0.9999</r>
       <r>   4.2027  0.9999</r>
       <r>   4.2029  0.9999</r>
       <r>   4.2448  0.9999</r>
       <r>   4.2451  0.9999</r>
       <r>   4.3283  0.9998</r>
       <r>   4.3354  0.9998</r>
       <r>   4.5462  0.9994</r>
       <r>   4.5463  0.9994</r>
       <r>   4.5890  0.9992</r>
       <r>   4.5900  0.9992</r>
       <r>   4.6230  0.9991</r>
       <r>   4.6240  0.9991</r>
       <r>   4.6249  0.9990</r>
       <r>   4.9313  0.9956</r>
       <r>   5.1830  0.9847</r>
       <r>   5.1840  0.9846</r>
       <r>   5.4344  0.9483</r>
       <r>   6.1051  0.3905</r>
       <r>   6.1550  0.3330</r>
       <r>   6.2560  0.2316</r>
       <r>   6.5021  0.0809</r>
       <r>   6.6202  0.0465</r>
       <r>   6.7152  0.0294</r>
       <r>   6.7161  0.0293</r>
       <r>   7.1963  0.0027</r>
       <r>   7.1973  0.0027</r>
       <r>   7.6946  0.0002</r>
       <r>   7.9187  0.0001</r>
       <r>   7.9193  0.0001</r>
       <r>   8.4013  0.0000</r>
       <r>   8.4022  0.0000</r>
       <r>   8.5861  0.0000</r>
       <r>   8.8335  0.0000</r>
       <r>   9.1408  0.0000</r>
       <r>   9.1418  0.0000</r>
       <r>   9.6081  0.0000</r>
       <r>   9.6091  0.0000</r>
       <r>   9.6559  0.0000</r>
       <r>   9.8432  0.0000</r>
       <r>   9.8432  0.0000</r>
       <r>  10.2158  0.0000</r>
       <r>  10.6730  0.0000</r>
       <r>  10.6734  0.0000</r>
       <r>  11.0182  0.0000</r>
       <r>  11.2119  0.0000</r>
       <r>  11.2120  0.0000</r>
       <r>  11.2640  0.0000</r>
       <r>  11.3909  0.0000</r>
       <r>  11.3912  0.0000</r>
       <r>  11.7156  0.0000</r>
       <r>  11.7157  0.0000</r>
       <r>  11.8098  0.0000</r>
       <r>  11.8109  0.0000</r>
       <r>  11.8765  0.0000</r>
       <r>  12.1900  0.0000</r>
      </set>
      <set comment="kpoint 3">
       <r> -35.8961  1.0000</r>
       <r> -35.8953  1.0000</r>
       <r> -35.8918  1.0000</r>
       <r> -35.8917  1.0000</r>
       <r> -35.8912  1.0000</r>
       <r> -35.8911  1.0000</r>
       <r> -35.8909  1.0000</r>
       <r> -35.8909  1.0000</r>
       <r> -35.8903  1.0000</r>
       <r> -35.8903  1.0000</r>
       <r> -35.8814  1.0000</r>
       <r> -35.8814  1.0000</r>
       <r> -35.8807  1.0000</r>
       <r> -35.8806  1.0000</r>
       <r> -35.8763  1.0000</r>
       <r> -35.8762  1.0000</r>
       <r> -35.8755  1.0000</r>
       <r> -35.8755  1.0000</r>
       <r> -35.8736  1.0000</r>
       <r> -35.8729  1.0000</r>
       <r> -35.8682  1.0000</r>
       <r> -35.8682  1.0000</r>
       <r> -35.8676  1.0000</r>
       <r> -35.8675  1.0000</r>
       <r> -35.8664  1.0000</r>
       <r> -35.8657  1.0000</r>
       <r> -35.8646  1.0000</r>
       <r> -35.8645  1.0000</r>
       <r> -35.8639  1.0000</r>
       <r> -35.8639  1.0000</r>
       <r> -35.8616  1.0000</r>
       <r> -35.8610  1.0000</r>
       <r> -35.8609  1.0000</r>
       <r> -35.8603  1.0000</r>
       <r> -35.8580  1.0000</r>
       <r> -35.8574  1.0000</r>
       <r> -35.8481  1.0000</r>
       <r> -35.8462  1.0000</r>
       <r> -35.8447  1.0000</r>
       <r> -35.8446  1.0000</r>
       <r> -35.8428  1.0000</r>
       <r> -35.8428  1.0000</r>
       <r> -35.8424  1.0000</r>
       <r> -35.8418  1.0000</r>
       <r> -35.8417  1.0000</r>
       <r> -35.8408  1.0000</r>
       <r> -35.8390  1.0000</r>
       <r> -35.8377  1.0000</r>
       <r> -35.8376  1.0000</r>
       <r> -35.8360  1.0000</r>
       <r> -35.8359  1.0000</r>
       <r> -35.8356  1.0000</r>
       <r> -35.8351  1.0000</r>
       <r> -35.8350  1.0000</r>
       <r>  -6.2160  1.0000</r>
       <r>  -5.5719  1.0000</r>
       <r>  -4.9504  1.0000</r>
       <r>  -4.9364  1.0000</r>
       <r>  -4.9356  1.0000</r>
       <r>  -4.3696  1.0000</r>
       <r>  -3.7924  1.0000</r>
       <r>  -3.7918  1.0000</r>
       <r>  -3.6938  1.0000</r>
       <r>  -3.6931  1.0000</r>
       <r>  -3.1003  1.0000</r>
       <r>  -2.6530  1.0000</r>
       <r>  -2.6524  1.0000</r>
       <r>  -2.5143  1.0000</r>
       <r>  -2.5136  1.0000</r>
       <r>  -2.1046  1.0000</r>
       <r>  -1.5600  1.0000</r>
       <r>  -1.5593  1.0000</r>
       <r>  -1.1818  1.0000</r>
       <r>  -1.1575  1.0000</r>
       <r>  -0.6725  1.0000</r>
       <r>  -0.6725  1.0000</r>
       <r>  -0.4515  1.0000</r>
       <r>  -0.2905  1.0000</r>
       <r>  -0.0418  1.0000</r>
       <r>  -0.0418  1.0000</r>
       <r>   0.1597  1.0000</r>
       <r>   0.1597  1.0000</r>
       <r>   0.2582  1.0000</r>
       <r>   0.2592  1.0000</r>
       <r>   0.7538  1.0000</r>
       <r>   0.7540  1.0000</r>
       <r>   1.3285  1.0000</r>
       <r>   1.3289  1.0000</r>
       <r>   1.5836  1.0000</r>
       <r>   1.5846  1.0000</r>
       <r>   1.9373  1.0000</r>
       <r>   1.9377  1.0000</r>
       <r>   2.0975  1.0000</r>
       <r>   2.0977  1.0000</r>
       <r>   2.1041  1.0000</r>
       <r>   2.7613  1.0000</r>
       <r>   2.7624  1.0000</r>
       <r>   2.7692  1.0000</r>
       <r>   2.7695  1.0000</r>
       <r>   3.1596  1.0000</r>
       <r>   3.1600  1.0000</r>
       <r>   3.2153  1.0000</r>
       <r>   3.2576  1.0000</r>
       <r>   3.5925  1.0000</r>
       <r>   3.5928  1.0000</r>
       <r>   3.7950  1.0000</r>
       <r>   3.7952  1.0000</r>
       <r>   3.8238  1.0000</r>
       <r>   3.8764  1.0000</r>
       <r>   3.8953  1.0000</r>
       <r>   4.1807  0.9999</r>
       <r>   4.2185  0.9999</r>
       <r>   4.2186  0.9999</r>
       <r>   4.4805  0.9995</r>
       <r>   4.4815  0.9995</r>
       <r>   5.0290  0.9929</r>
       <r>   5.1118  0.9892</r>
       <r>   5.1128  0.9892</r>
       <r>   5.1861  0.9845</r>
       <r>   5.3481  0.9658</r>
       <r>   5.3572  0.9642</r>
       <r>   5.5904  0.8936</r>
       <r>   5.5914  0.8931</r>
       <r>   5.8183  0.7288</r>
       <r>   5.9142  0.6247</r>
       <r>   5.9620  0.5672</r>
       <r>   6.1471  0.3418</r>
       <r>   6.1480  0.3409</r>
       <r>   6.2641  0.2244</r>
       <r>   6.6130  0.0481</r>
       <r>   6.6140  0.0479</r>
       <r>   7.8426  0.0001</r>
       <r>   8.4122  0.0000</r>
       <r>   8.4128  0.0000</r>
       <r>   8.4266  0.0000</r>
       <r>   8.9875  0.0000</r>
       <r>   8.9883  0.0000</r>
       <r>   9.0887  0.0000</r>
       <r>   9.0896  0.0000</r>
       <r>   9.4221  0.0000</r>
       <r>   9.8709  0.0000</r>
       <r>   9.9104  0.0000</r>
       <r>  10.1165  0.0000</r>
       <r>  10.1171  0.0000</r>
       <r>  10.1398  0.0000</r>
       <r>  10.1407  0.0000</r>
       <r>  10.4630  0.0000</r>
       <r>  10.4631  0.0000</r>
       <r>  11.1868  0.0000</r>
       <r>  11.3072  0.0000</r>
       <r>  11.3082  0.0000</r>
       <r>  11.5613  0.0000</r>
       <r>  11.6916  0.0000</r>
       <r>  11.6917  0.0000</r>
       <r>  11.7937  0.0000</r>
       <r>  12.0895  0.0000</r>
       <r>  12.0895  0.0000</r>
       <r>  12.1816  0.0000</r>
       <r>  12.2064  0.0000</r>
       <r>  12.2074  0.0000</r>
      </set>
      <set comment="kpoint 4">
       <r> -35.8974  1.0000</r>
       <r> -35.8965  1.0000</r>
       <r> -35.8923  1.0000</r>
       <r> -35.8922  1.0000</r>
       <r> -35.8922  1.0000</r>
       <r> -35.8920  1.0000</r>
       <r> -35.8915  1.0000</r>
       <r> -35.8913  1.0000</r>
       <r> -35.8913  1.0000</r>
       <r> -35.8912  1.0000</r>
       <r> -35.8803  1.0000</r>
       <r> -35.8802  1.0000</r>
       <r> -35.8796  1.0000</r>
       <r> -35.8795  1.0000</r>
       <r> -35.8720  1.0000</r>
       <r> -35.8719  1.0000</r>
       <r> -35.8719  1.0000</r>
       <r> -35.8718  1.0000</r>
       <r> -35.8713  1.0000</r>
       <r> -35.8712  1.0000</r>
       <r> -35.8711  1.0000</r>
       <r> -35.8711  1.0000</r>
       <r> -35.8671  1.0000</r>
       <r> -35.8669  1.0000</r>
       <r> -35.8667  1.0000</r>
       <r> -35.8664  1.0000</r>
       <r> -35.8663  1.0000</r>
       <r> -35.8660  1.0000</r>
       <r> -35.8649  1.0000</r>
       <r> -35.8649  1.0000</r>
       <r> -35.8643  1.0000</r>
       <r> -35.8642  1.0000</r>
       <r> -35.8594  1.0000</r>
       <r> -35.8592  1.0000</r>
       <r> -35.8588  1.0000</r>
       <r> -35.8586  1.0000</r>
       <r> -35.8473  1.0000</r>
       <r> -35.8471  1.0000</r>
       <r> -35.8448  1.0000</r>
       <r> -35.8447  1.0000</r>
       <r> -35.8425  1.0000</r>
       <r> -35.8423  1.0000</r>
       <r> -35.8422  1.0000</r>
       <r> -35.8422  1.0000</r>
       <r> -35.8420  1.0000</r>
       <r> -35.8401  1.0000</r>
       <r> -35.8399  1.0000</r>
       <r> -35.8377  1.0000</r>
       <r> -35.8377  1.0000</r>
       <r> -35.8357  1.0000</r>
       <r> -35.8355  1.0000</r>
       <r> -35.8354  1.0000</r>
       <r> -35.8354  1.0000</r>
       <r> -35.8352  1.0000</r>
       <r>  -5.9472  1.0000</r>
       <r>  -5.9461  1.0000</r>
       <r>  -4.9891  1.0000</r>
       <r>  -4.9884  1.0000</r>
       <r>  -4.7085  1.0000</r>
       <r>  -4.7076  1.0000</r>
       <r>  -3.8405  1.0000</r>
       <r>  -3.8399  1.0000</r>
       <r>  -3.1433  1.0000</r>
       <r>  -3.1425  1.0000</r>
       <r>  -3.1422  1.0000</r>
       <r>  -3.1414  1.0000</r>
       <r>  -2.5140  1.0000</r>
       <r>  -2.1443  1.0000</r>
       <r>  -2.1435  1.0000</r>
       <r>  -2.1433  1.0000</r>
       <r>  -2.1425  1.0000</r>
       <r>  -1.8285  1.0000</r>
       <r>  -1.5623  1.0000</r>
       <r>  -0.9161  1.0000</r>
       <r>  -0.8761  1.0000</r>
       <r>  -0.8742  1.0000</r>
       <r>  -0.3991  1.0000</r>
       <r>  -0.3986  1.0000</r>
       <r>  -0.3982  1.0000</r>
       <r>  -0.3977  1.0000</r>
       <r>   0.2004  1.0000</r>
       <r>   0.2014  1.0000</r>
       <r>   0.4162  1.0000</r>
       <r>   0.4167  1.0000</r>
       <r>   0.4170  1.0000</r>
       <r>   0.4175  1.0000</r>
       <r>   2.1442  1.0000</r>
       <r>   2.1452  1.0000</r>
       <r>   2.1455  1.0000</r>
       <r>   2.1465  1.0000</r>
       <r>   2.2514  1.0000</r>
       <r>   2.2516  1.0000</r>
       <r>   2.2519  1.0000</r>
       <r>   2.2522  1.0000</r>
       <r>   2.4469  1.0000</r>
       <r>   2.4471  1.0000</r>
       <r>   2.4649  1.0000</r>
       <r>   2.7808  1.0000</r>
       <r>   2.7811  1.0000</r>
       <r>   2.7813  1.0000</r>
       <r>   2.7816  1.0000</r>
       <r>   3.1038  1.0000</r>
       <r>   3.1042  1.0000</r>
       <r>   3.4860  1.0000</r>
       <r>   3.4863  1.0000</r>
       <r>   3.5164  1.0000</r>
       <r>   3.5180  1.0000</r>
       <r>   3.8447  1.0000</r>
       <r>   3.9442  1.0000</r>
       <r>   3.9444  1.0000</r>
       <r>   4.1287  0.9999</r>
       <r>   4.3438  0.9998</r>
       <r>   4.3441  0.9998</r>
       <r>   4.4327  0.9996</r>
       <r>   4.4337  0.9996</r>
       <r>   4.7314  0.9984</r>
       <r>   4.8796  0.9966</r>
       <r>   4.8802  0.9966</r>
       <r>   5.4755  0.9372</r>
       <r>   5.4766  0.9369</r>
       <r>   5.6182  0.8797</r>
       <r>   5.6196  0.8789</r>
       <r>   5.6196  0.8789</r>
       <r>   5.6210  0.8782</r>
       <r>   5.8094  0.7376</r>
       <r>   5.8105  0.7365</r>
       <r>   6.0709  0.4319</r>
       <r>   6.0719  0.4306</r>
       <r>   6.0722  0.4303</r>
       <r>   6.0733  0.4290</r>
       <r>   6.2073  0.2777</r>
       <r>   8.0892  0.0000</r>
       <r>   8.0908  0.0000</r>
       <r>   8.6169  0.0000</r>
       <r>   8.6174  0.0000</r>
       <r>   9.0701  0.0000</r>
       <r>   9.0710  0.0000</r>
       <r>   9.0865  0.0000</r>
       <r>   9.5558  0.0000</r>
       <r>   9.5566  0.0000</r>
       <r>   9.5574  0.0000</r>
       <r>   9.5582  0.0000</r>
       <r>   9.9249  0.0000</r>
       <r>  10.7330  0.0000</r>
       <r>  10.7340  0.0000</r>
       <r>  10.7347  0.0000</r>
       <r>  10.7357  0.0000</r>
       <r>  11.2464  0.0000</r>
       <r>  11.2482  0.0000</r>
       <r>  11.3362  0.0000</r>
       <r>  11.4059  0.0000</r>
       <r>  11.4072  0.0000</r>
       <r>  11.4077  0.0000</r>
       <r>  11.4090  0.0000</r>
       <r>  11.7656  0.0000</r>
       <r>  11.8918  0.0000</r>
       <r>  11.8926  0.0000</r>
       <r>  12.2335  0.0000</r>
       <r>  12.2339  0.0000</r>
       <r>  12.2501  0.0000</r>
      </set>
      <set comment="kpoint 5">
       <r> -35.8926  1.0000</r>
       <r> -35.8918  1.0000</r>
       <r> -35.8900  1.0000</r>
       <r> -35.8900  1.0000</r>
       <r> -35.8892  1.0000</r>
       <r> -35.8892  1.0000</r>
       <r> -35.8888  1.0000</r>
       <r> -35.8887  1.0000</r>
       <r> -35.8879  1.0000</r>
       <r> -35.8878  1.0000</r>
       <r> -35.8841  1.0000</r>
       <r> -35.8841  1.0000</r>
       <r> -35.8834  1.0000</r>
       <r> -35.8833  1.0000</r>
       <r> -35.8810  1.0000</r>
       <r> -35.8809  1.0000</r>
       <r> -35.8806  1.0000</r>
       <r> -35.8801  1.0000</r>
       <r> -35.8800  1.0000</r>
       <r> -35.8798  1.0000</r>
       <r> -35.8657  1.0000</r>
       <r> -35.8656  1.0000</r>
       <r> -35.8655  1.0000</r>
       <r> -35.8650  1.0000</r>
       <r> -35.8649  1.0000</r>
       <r> -35.8648  1.0000</r>
       <r> -35.8640  1.0000</r>
       <r> -35.8640  1.0000</r>
       <r> -35.8634  1.0000</r>
       <r> -35.8634  1.0000</r>
       <r> -35.8626  1.0000</r>
       <r> -35.8620  1.0000</r>
       <r> -35.8580  1.0000</r>
       <r> -35.8575  1.0000</r>
       <r> -35.8571  1.0000</r>
       <r> -35.8566  1.0000</r>
       <r> -35.8487  1.0000</r>
       <r> -35.8450  1.0000</r>
       <r> -35.8444  1.0000</r>
       <r> -35.8443  1.0000</r>
       <r> -35.8434  1.0000</r>
       <r> -35.8434  1.0000</r>
       <r> -35.8430  1.0000</r>
       <r> -35.8415  1.0000</r>
       <r> -35.8415  1.0000</r>
       <r> -35.8413  1.0000</r>
       <r> -35.8380  1.0000</r>
       <r> -35.8374  1.0000</r>
       <r> -35.8373  1.0000</r>
       <r> -35.8365  1.0000</r>
       <r> -35.8365  1.0000</r>
       <r> -35.8361  1.0000</r>
       <r> -35.8348  1.0000</r>
       <r> -35.8348  1.0000</r>
       <r>  -6.3783  1.0000</r>
       <r>  -5.0961  1.0000</r>
       <r>  -5.0938  1.0000</r>
       <r>  -4.7790  1.0000</r>
       <r>  -4.7776  1.0000</r>
       <r>  -4.1546  1.0000</r>
       <r>  -4.1532  1.0000</r>
       <r>  -3.9360  1.0000</r>
       <r>  -3.8461  1.0000</r>
       <r>  -3.6487  1.0000</r>
       <r>  -3.6475  1.0000</r>
       <r>  -3.0769  1.0000</r>
       <r>  -3.0757  1.0000</r>
       <r>  -2.7932  1.0000</r>
       <r>  -1.8444  1.0000</r>
       <r>  -1.8430  1.0000</r>
       <r>  -1.3673  1.0000</r>
       <r>  -0.9324  1.0000</r>
       <r>  -0.9312  1.0000</r>
       <r>  -0.9008  1.0000</r>
       <r>  -0.9004  1.0000</r>
       <r>  -0.1599  1.0000</r>
       <r>  -0.0488  1.0000</r>
       <r>  -0.0486  1.0000</r>
       <r>   0.0824  1.0000</r>
       <r>   0.4008  1.0000</r>
       <r>   0.4010  1.0000</r>
       <r>   0.4298  1.0000</r>
       <r>   0.4319  1.0000</r>
       <r>   0.5263  1.0000</r>
       <r>   0.5267  1.0000</r>
       <r>   0.6458  1.0000</r>
       <r>   1.1007  1.0000</r>
       <r>   1.1028  1.0000</r>
       <r>   1.1723  1.0000</r>
       <r>   1.1727  1.0000</r>
       <r>   1.1873  1.0000</r>
       <r>   1.1877  1.0000</r>
       <r>   1.4158  1.0000</r>
       <r>   1.5055  1.0000</r>
       <r>   1.5058  1.0000</r>
       <r>   2.0583  1.0000</r>
       <r>   2.2130  1.0000</r>
       <r>   2.2135  1.0000</r>
       <r>   2.7353  1.0000</r>
       <r>   3.1008  1.0000</r>
       <r>   3.3989  1.0000</r>
       <r>   3.4011  1.0000</r>
       <r>   3.9064  1.0000</r>
       <r>   3.9070  1.0000</r>
       <r>   4.0458  0.9999</r>
       <r>   4.2026  0.9999</r>
       <r>   4.2030  0.9999</r>
       <r>   4.2447  0.9999</r>
       <r>   4.2453  0.9999</r>
       <r>   4.3283  0.9998</r>
       <r>   4.3355  0.9998</r>
       <r>   4.5461  0.9994</r>
       <r>   4.5463  0.9994</r>
       <r>   4.5885  0.9992</r>
       <r>   4.5906  0.9992</r>
       <r>   4.6225  0.9991</r>
       <r>   4.6244  0.9991</r>
       <r>   4.6250  0.9990</r>
       <r>   4.9313  0.9956</r>
       <r>   5.1824  0.9848</r>
       <r>   5.1845  0.9846</r>
       <r>   5.4344  0.9483</r>
       <r>   6.1051  0.3905</r>
       <r>   6.1550  0.3330</r>
       <r>   6.2560  0.2316</r>
       <r>   6.5021  0.0809</r>
       <r>   6.6202  0.0465</r>
       <r>   6.7148  0.0295</r>
       <r>   6.7165  0.0293</r>
       <r>   7.1958  0.0027</r>
       <r>   7.1979  0.0027</r>
       <r>   7.6946  0.0002</r>
       <r>   7.9184  0.0001</r>
       <r>   7.9197  0.0001</r>
       <r>   8.4008  0.0000</r>
       <r>   8.4027  0.0000</r>
       <r>   8.5861  0.0000</r>
       <r>   8.8335  0.0000</r>
       <r>   9.1403  0.0000</r>
       <r>   9.1423  0.0000</r>
       <r>   9.6077  0.0000</r>
       <r>   9.6095  0.0000</r>
       <r>   9.6560  0.0000</r>
       <r>   9.8432  0.0000</r>
       <r>   9.8433  0.0000</r>
       <r>  10.2158  0.0000</r>
       <r>  10.6728  0.0000</r>
       <r>  10.6736  0.0000</r>
       <r>  11.0182  0.0000</r>
       <r>  11.2119  0.0000</r>
       <r>  11.2121  0.0000</r>
       <r>  11.2640  0.0000</r>
       <r>  11.3908  0.0000</r>
       <r>  11.3913  0.0000</r>
       <r>  11.7155  0.0000</r>
       <r>  11.7157  0.0000</r>
       <r>  11.8094  0.0000</r>
       <r>  11.8117  0.0000</r>
       <r>  11.8765  0.0000</r>
       <r>  12.2005  0.0000</r>
      </set>
      <set comment="kpoint 6">
       <r> -35.8944  1.0000</r>
       <r> -35.8943  1.0000</r>
       <r> -35.8936  1.0000</r>
       <r> -35.8934  1.0000</r>
       <r> -35.8915  1.0000</r>
       <r> -35.8906  1.0000</r>
       <r> -35.8897  1.0000</r>
       <r> -35.8889  1.0000</r>
       <r> -35.8873  1.0000</r>
       <r> -35.8870  1.0000</r>
       <r> -35.8865  1.0000</r>
       <r> -35.8862  1.0000</r>
       <r> -35.8780  1.0000</r>
       <r> -35.8775  1.0000</r>
       <r> -35.8774  1.0000</r>
       <r> -35.8772  1.0000</r>
       <r> -35.8770  1.0000</r>
       <r> -35.8767  1.0000</r>
       <r> -35.8767  1.0000</r>
       <r> -35.8763  1.0000</r>
       <r> -35.8668  1.0000</r>
       <r> -35.8667  1.0000</r>
       <r> -35.8667  1.0000</r>
       <r> -35.8665  1.0000</r>
       <r> -35.8662  1.0000</r>
       <r> -35.8660  1.0000</r>
       <r> -35.8660  1.0000</r>
       <r> -35.8658  1.0000</r>
       <r> -35.8623  1.0000</r>
       <r> -35.8622  1.0000</r>
       <r> -35.8616  1.0000</r>
       <r> -35.8616  1.0000</r>
       <r> -35.8604  1.0000</r>
       <r> -35.8598  1.0000</r>
       <r> -35.8577  1.0000</r>
       <r> -35.8572  1.0000</r>
       <r> -35.8483  1.0000</r>
       <r> -35.8456  1.0000</r>
       <r> -35.8454  1.0000</r>
       <r> -35.8437  1.0000</r>
       <r> -35.8435  1.0000</r>
       <r> -35.8428  1.0000</r>
       <r> -35.8425  1.0000</r>
       <r> -35.8417  1.0000</r>
       <r> -35.8416  1.0000</r>
       <r> -35.8409  1.0000</r>
       <r> -35.8385  1.0000</r>
       <r> -35.8383  1.0000</r>
       <r> -35.8368  1.0000</r>
       <r> -35.8366  1.0000</r>
       <r> -35.8359  1.0000</r>
       <r> -35.8357  1.0000</r>
       <r> -35.8350  1.0000</r>
       <r> -35.8349  1.0000</r>
       <r>  -6.2700  1.0000</r>
       <r>  -5.3065  1.0000</r>
       <r>  -5.3053  1.0000</r>
       <r>  -4.9988  1.0000</r>
       <r>  -4.3616  1.0000</r>
       <r>  -4.3605  1.0000</r>
       <r>  -4.1290  1.0000</r>
       <r>  -4.1280  1.0000</r>
       <r>  -3.4429  1.0000</r>
       <r>  -3.4417  1.0000</r>
       <r>  -3.2669  1.0000</r>
       <r>  -3.2660  1.0000</r>
       <r>  -2.5558  1.0000</r>
       <r>  -2.4213  1.0000</r>
       <r>  -2.4203  1.0000</r>
       <r>  -1.9492  1.0000</r>
       <r>  -1.5987  1.0000</r>
       <r>  -1.2939  1.0000</r>
       <r>  -1.2435  1.0000</r>
       <r>  -1.0294  1.0000</r>
       <r>  -0.6407  1.0000</r>
       <r>  -0.6396  1.0000</r>
       <r>  -0.4287  1.0000</r>
       <r>  -0.2670  1.0000</r>
       <r>  -0.1540  1.0000</r>
       <r>  -0.1521  1.0000</r>
       <r>   0.1932  1.0000</r>
       <r>   0.1943  1.0000</r>
       <r>   0.5550  1.0000</r>
       <r>   0.8584  1.0000</r>
       <r>   0.8853  1.0000</r>
       <r>   0.8869  1.0000</r>
       <r>   1.0133  1.0000</r>
       <r>   1.0134  1.0000</r>
       <r>   1.2546  1.0000</r>
       <r>   1.4894  1.0000</r>
       <r>   1.7473  1.0000</r>
       <r>   1.7474  1.0000</r>
       <r>   1.8134  1.0000</r>
       <r>   1.8151  1.0000</r>
       <r>   1.8701  1.0000</r>
       <r>   2.6422  1.0000</r>
       <r>   2.6432  1.0000</r>
       <r>   2.7583  1.0000</r>
       <r>   3.1560  1.0000</r>
       <r>   3.2054  1.0000</r>
       <r>   3.2836  1.0000</r>
       <r>   3.2846  1.0000</r>
       <r>   3.4235  1.0000</r>
       <r>   3.4246  1.0000</r>
       <r>   3.7051  1.0000</r>
       <r>   3.7052  1.0000</r>
       <r>   3.8534  1.0000</r>
       <r>   3.8544  1.0000</r>
       <r>   4.0397  0.9999</r>
       <r>   4.0399  0.9999</r>
       <r>   4.1290  0.9999</r>
       <r>   4.1306  0.9999</r>
       <r>   4.5840  0.9992</r>
       <r>   4.5841  0.9992</r>
       <r>   4.6797  0.9987</r>
       <r>   4.9336  0.9956</r>
       <r>   4.9339  0.9956</r>
       <r>   5.0109  0.9935</r>
       <r>   5.0126  0.9934</r>
       <r>   5.2251  0.9812</r>
       <r>   5.6256  0.8757</r>
       <r>   5.6403  0.8675</r>
       <r>   5.6420  0.8665</r>
       <r>   5.7543  0.7873</r>
       <r>   5.7557  0.7861</r>
       <r>   5.9779  0.5475</r>
       <r>   6.0627  0.4420</r>
       <r>   6.3405  0.1649</r>
       <r>   6.6377  0.0428</r>
       <r>   6.9197  0.0108</r>
       <r>   7.2474  0.0021</r>
       <r>   7.2479  0.0021</r>
       <r>   7.7956  0.0001</r>
       <r>   8.6324  0.0000</r>
       <r>   8.6909  0.0000</r>
       <r>   8.6929  0.0000</r>
       <r>   9.0098  0.0000</r>
       <r>   9.1888  0.0000</r>
       <r>   9.1910  0.0000</r>
       <r>   9.5995  0.0000</r>
       <r>   9.6005  0.0000</r>
       <r>   9.7607  0.0000</r>
       <r>   9.7625  0.0000</r>
       <r>   9.9935  0.0000</r>
       <r>   9.9949  0.0000</r>
       <r>  10.1848  0.0000</r>
       <r>  10.3346  0.0000</r>
       <r>  11.0733  0.0000</r>
       <r>  11.0736  0.0000</r>
       <r>  11.1942  0.0000</r>
       <r>  11.1949  0.0000</r>
       <r>  11.2916  0.0000</r>
       <r>  11.6665  0.0000</r>
       <r>  11.6668  0.0000</r>
       <r>  11.7276  0.0000</r>
       <r>  11.9219  0.0000</r>
       <r>  11.9234  0.0000</r>
       <r>  12.1024  0.0000</r>
       <r>  12.1027  0.0000</r>
       <r>  12.1456  0.0000</r>
      </set>
      <set comment="kpoint 7">
       <r> -35.8967  1.0000</r>
       <r> -35.8958  1.0000</r>
       <r> -35.8948  1.0000</r>
       <r> -35.8939  1.0000</r>
       <r> -35.8938  1.0000</r>
       <r> -35.8929  1.0000</r>
       <r> -35.8900  1.0000</r>
       <r> -35.8892  1.0000</r>
       <r> -35.8892  1.0000</r>
       <r> -35.8884  1.0000</r>
       <r> -35.8851  1.0000</r>
       <r> -35.8843  1.0000</r>
       <r> -35.8753  1.0000</r>
       <r> -35.8746  1.0000</r>
       <r> -35.8740  1.0000</r>
       <r> -35.8733  1.0000</r>
       <r> -35.8729  1.0000</r>
       <r> -35.8722  1.0000</r>
       <r> -35.8707  1.0000</r>
       <r> -35.8701  1.0000</r>
       <r> -35.8700  1.0000</r>
       <r> -35.8693  1.0000</r>
       <r> -35.8693  1.0000</r>
       <r> -35.8686  1.0000</r>
       <r> -35.8676  1.0000</r>
       <r> -35.8674  1.0000</r>
       <r> -35.8669  1.0000</r>
       <r> -35.8667  1.0000</r>
       <r> -35.8648  1.0000</r>
       <r> -35.8642  1.0000</r>
       <r> -35.8624  1.0000</r>
       <r> -35.8618  1.0000</r>
       <r> -35.8605  1.0000</r>
       <r> -35.8599  1.0000</r>
       <r> -35.8589  1.0000</r>
       <r> -35.8583  1.0000</r>
       <r> -35.8476  1.0000</r>
       <r> -35.8466  1.0000</r>
       <r> -35.8457  1.0000</r>
       <r> -35.8438  1.0000</r>
       <r> -35.8429  1.0000</r>
       <r> -35.8424  1.0000</r>
       <r> -35.8422  1.0000</r>
       <r> -35.8421  1.0000</r>
       <r> -35.8418  1.0000</r>
       <r> -35.8403  1.0000</r>
       <r> -35.8394  1.0000</r>
       <r> -35.8386  1.0000</r>
       <r> -35.8369  1.0000</r>
       <r> -35.8360  1.0000</r>
       <r> -35.8356  1.0000</r>
       <r> -35.8354  1.0000</r>
       <r> -35.8353  1.0000</r>
       <r> -35.8351  1.0000</r>
       <r>  -6.0542  1.0000</r>
       <r>  -5.7322  1.0000</r>
       <r>  -5.4122  1.0000</r>
       <r>  -4.8049  1.0000</r>
       <r>  -4.5146  1.0000</r>
       <r>  -4.4651  1.0000</r>
       <r>  -4.2250  1.0000</r>
       <r>  -3.8461  1.0000</r>
       <r>  -3.3619  1.0000</r>
       <r>  -3.2401  1.0000</r>
       <r>  -2.9523  1.0000</r>
       <r>  -2.7935  1.0000</r>
       <r>  -2.6940  1.0000</r>
       <r>  -2.4059  1.0000</r>
       <r>  -2.2340  1.0000</r>
       <r>  -1.9673  1.0000</r>
       <r>  -1.7282  1.0000</r>
       <r>  -1.5557  1.0000</r>
       <r>  -1.4588  1.0000</r>
       <r>  -1.2830  1.0000</r>
       <r>  -1.0233  1.0000</r>
       <r>  -0.9974  1.0000</r>
       <r>  -0.6634  1.0000</r>
       <r>  -0.6321  1.0000</r>
       <r>  -0.4143  1.0000</r>
       <r>  -0.2716  1.0000</r>
       <r>  -0.1677  1.0000</r>
       <r>   0.1949  1.0000</r>
       <r>   0.5856  1.0000</r>
       <r>   0.7766  1.0000</r>
       <r>   0.9823  1.0000</r>
       <r>   1.3444  1.0000</r>
       <r>   1.4384  1.0000</r>
       <r>   1.5705  1.0000</r>
       <r>   1.5747  1.0000</r>
       <r>   2.0723  1.0000</r>
       <r>   2.1351  1.0000</r>
       <r>   2.1604  1.0000</r>
       <r>   2.2721  1.0000</r>
       <r>   2.2765  1.0000</r>
       <r>   2.4047  1.0000</r>
       <r>   2.4928  1.0000</r>
       <r>   2.6697  1.0000</r>
       <r>   2.7449  1.0000</r>
       <r>   2.8844  1.0000</r>
       <r>   3.0011  1.0000</r>
       <r>   3.0101  1.0000</r>
       <r>   3.1510  1.0000</r>
       <r>   3.3785  1.0000</r>
       <r>   3.4137  1.0000</r>
       <r>   3.4352  1.0000</r>
       <r>   3.6033  1.0000</r>
       <r>   3.7234  1.0000</r>
       <r>   3.7611  1.0000</r>
       <r>   3.7674  1.0000</r>
       <r>   3.9360  1.0000</r>
       <r>   4.0300  1.0000</r>
       <r>   4.2802  0.9998</r>
       <r>   4.3394  0.9998</r>
       <r>   4.6912  0.9987</r>
       <r>   4.8030  0.9977</r>
       <r>   4.8679  0.9968</r>
       <r>   4.8866  0.9965</r>
       <r>   4.9247  0.9958</r>
       <r>   5.0337  0.9927</r>
       <r>   5.2114  0.9824</r>
       <r>   5.3038  0.9724</r>
       <r>   5.3898  0.9582</r>
       <r>   5.4866  0.9339</r>
       <r>   5.5205  0.9226</r>
       <r>   5.8817  0.6619</r>
       <r>   5.9117  0.6276</r>
       <r>   6.0367  0.4743</r>
       <r>   6.1297  0.3616</r>
       <r>   6.1845  0.3011</r>
       <r>   6.5329  0.0702</r>
       <r>   6.5827  0.0556</r>
       <r>   7.6035  0.0004</r>
       <r>   8.0022  0.0000</r>
       <r>   8.3052  0.0000</r>
       <r>   8.6415  0.0000</r>
       <r>   8.9605  0.0000</r>
       <r>   9.1571  0.0000</r>
       <r>   9.3396  0.0000</r>
       <r>   9.5747  0.0000</r>
       <r>   9.5867  0.0000</r>
       <r>   9.7069  0.0000</r>
       <r>  10.1380  0.0000</r>
       <r>  10.1799  0.0000</r>
       <r>  10.4010  0.0000</r>
       <r>  10.4824  0.0000</r>
       <r>  10.6318  0.0000</r>
       <r>  10.7125  0.0000</r>
       <r>  10.8523  0.0000</r>
       <r>  11.2107  0.0000</r>
       <r>  11.3187  0.0000</r>
       <r>  11.3198  0.0000</r>
       <r>  11.3276  0.0000</r>
       <r>  11.5215  0.0000</r>
       <r>  11.7359  0.0000</r>
       <r>  11.8086  0.0000</r>
       <r>  11.8380  0.0000</r>
       <r>  11.9837  0.0000</r>
       <r>  12.0471  0.0000</r>
       <r>  12.2609  0.0000</r>
       <r>  12.4834  0.0000</r>
      </set>
      <set comment="kpoint 8">
       <r> -35.8967  1.0000</r>
       <r> -35.8958  1.0000</r>
       <r> -35.8948  1.0000</r>
       <r> -35.8939  1.0000</r>
       <r> -35.8937  1.0000</r>
       <r> -35.8929  1.0000</r>
       <r> -35.8901  1.0000</r>
       <r> -35.8892  1.0000</r>
       <r> -35.8892  1.0000</r>
       <r> -35.8883  1.0000</r>
       <r> -35.8851  1.0000</r>
       <r> -35.8843  1.0000</r>
       <r> -35.8753  1.0000</r>
       <r> -35.8746  1.0000</r>
       <r> -35.8740  1.0000</r>
       <r> -35.8733  1.0000</r>
       <r> -35.8729  1.0000</r>
       <r> -35.8722  1.0000</r>
       <r> -35.8707  1.0000</r>
       <r> -35.8701  1.0000</r>
       <r> -35.8700  1.0000</r>
       <r> -35.8693  1.0000</r>
       <r> -35.8693  1.0000</r>
       <r> -35.8686  1.0000</r>
       <r> -35.8676  1.0000</r>
       <r> -35.8674  1.0000</r>
       <r> -35.8669  1.0000</r>
       <r> -35.8667  1.0000</r>
       <r> -35.8648  1.0000</r>
       <r> -35.8642  1.0000</r>
       <r> -35.8624  1.0000</r>
       <r> -35.8618  1.0000</r>
       <r> -35.8605  1.0000</r>
       <r> -35.8599  1.0000</r>
       <r> -35.8589  1.0000</r>
       <r> -35.8583  1.0000</r>
       <r> -35.8476  1.0000</r>
       <r> -35.8466  1.0000</r>
       <r> -35.8457  1.0000</r>
       <r> -35.8438  1.0000</r>
       <r> -35.8429  1.0000</r>
       <r> -35.8423  1.0000</r>
       <r> -35.8422  1.0000</r>
       <r> -35.8422  1.0000</r>
       <r> -35.8418  1.0000</r>
       <r> -35.8403  1.0000</r>
       <r> -35.8394  1.0000</r>
       <r> -35.8386  1.0000</r>
       <r> -35.8369  1.0000</r>
       <r> -35.8361  1.0000</r>
       <r> -35.8355  1.0000</r>
       <r> -35.8354  1.0000</r>
       <r> -35.8354  1.0000</r>
       <r> -35.8351  1.0000</r>
       <r>  -6.0542  1.0000</r>
       <r>  -5.7322  1.0000</r>
       <r>  -5.4122  1.0000</r>
       <r>  -4.8049  1.0000</r>
       <r>  -4.5146  1.0000</r>
       <r>  -4.4651  1.0000</r>
       <r>  -4.2250  1.0000</r>
       <r>  -3.8461  1.0000</r>
       <r>  -3.3619  1.0000</r>
       <r>  -3.2401  1.0000</r>
       <r>  -2.9523  1.0000</r>
       <r>  -2.7935  1.0000</r>
       <r>  -2.6940  1.0000</r>
       <r>  -2.4059  1.0000</r>
       <r>  -2.2340  1.0000</r>
       <r>  -1.9673  1.0000</r>
       <r>  -1.7282  1.0000</r>
       <r>  -1.5557  1.0000</r>
       <r>  -1.4588  1.0000</r>
       <r>  -1.2830  1.0000</r>
       <r>  -1.0233  1.0000</r>
       <r>  -0.9974  1.0000</r>
       <r>  -0.6634  1.0000</r>
       <r>  -0.6321  1.0000</r>
       <r>  -0.4143  1.0000</r>
       <r>  -0.2716  1.0000</r>
       <r>  -0.1677  1.0000</r>
       <r>   0.1949  1.0000</r>
       <r>   0.5856  1.0000</r>
       <r>   0.7766  1.0000</r>
       <r>   0.9823  1.0000</r>
       <r>   1.3444  1.0000</r>
       <r>   1.4384  1.0000</r>
       <r>   1.5704  1.0000</r>
       <r>   1.5748  1.0000</r>
       <r>   2.0723  1.0000</r>
       <r>   2.1351  1.0000</r>
       <r>   2.1604  1.0000</r>
       <r>   2.2721  1.0000</r>
       <r>   2.2765  1.0000</r>
       <r>   2.4047  1.0000</r>
       <r>   2.4928  1.0000</r>
       <r>   2.6697  1.0000</r>
       <r>   2.7449  1.0000</r>
       <r>   2.8845  1.0000</r>
       <r>   3.0011  1.0000</r>
       <r>   3.0101  1.0000</r>
       <r>   3.1510  1.0000</r>
       <r>   3.3785  1.0000</r>
       <r>   3.4137  1.0000</r>
       <r>   3.4352  1.0000</r>
       <r>   3.6033  1.0000</r>
       <r>   3.7234  1.0000</r>
       <r>   3.7611  1.0000</r>
       <r>   3.7674  1.0000</r>
       <r>   3.9360  1.0000</r>
       <r>   4.0300  1.0000</r>
       <r>   4.2802  0.9998</r>
       <r>   4.3394  0.9998</r>
       <r>   4.6912  0.9987</r>
       <r>   4.8030  0.9977</r>
       <r>   4.8679  0.9968</r>
       <r>   4.8866  0.9965</r>
       <r>   4.9247  0.9958</r>
       <r>   5.0337  0.9927</r>
       <r>   5.2114  0.9824</r>
       <r>   5.3038  0.9724</r>
       <r>   5.3898  0.9582</r>
       <r>   5.4866  0.9339</r>
       <r>   5.5205  0.9226</r>
       <r>   5.8817  0.6619</r>
       <r>   5.9117  0.6276</r>
       <r>   6.0367  0.4743</r>
       <r>   6.1297  0.3616</r>
       <r>   6.1845  0.3011</r>
       <r>   6.5329  0.0702</r>
       <r>   6.5827  0.0556</r>
       <r>   7.6035  0.0004</r>
       <r>   8.0022  0.0000</r>
       <r>   8.3052  0.0000</r>
       <r>   8.6415  0.0000</r>
       <r>   8.9605  0.0000</r>
       <r>   9.1571  0.0000</r>
       <r>   9.3396  0.0000</r>
       <r>   9.5747  0.0000</r>
       <r>   9.5867  0.0000</r>
       <r>   9.7069  0.0000</r>
       <r>  10.1380  0.0000</r>
       <r>  10.1799  0.0000</r>
       <r>  10.4010  0.0000</r>
       <r>  10.4824  0.0000</r>
       <r>  10.6318  0.0000</r>
       <r>  10.7125  0.0000</r>
       <r>  10.8523  0.0000</r>
       <r>  11.2107  0.0000</r>
       <r>  11.3187  0.0000</r>
       <r>  11.3198  0.0000</r>
       <r>  11.3277  0.0000</r>
       <r>  11.5215  0.0000</r>
       <r>  11.7359  0.0000</r>
       <r>  11.8086  0.0000</r>
       <r>  11.8380  0.0000</r>
       <r>  11.9837  0.0000</r>
       <r>  12.0471  0.0000</r>
       <r>  12.2609  0.0000</r>
       <r>  12.4469  0.0000</r>
      </set>
      <set comment="kpoint 9">
       <r> -35.8944  1.0000</r>
       <r> -35.8944  1.0000</r>
       <r> -35.8935  1.0000</r>
       <r> -35.8935  1.0000</r>
       <r> -35.8915  1.0000</r>
       <r> -35.8906  1.0000</r>
       <r> -35.8897  1.0000</r>
       <r> -35.8889  1.0000</r>
       <r> -35.8871  1.0000</r>
       <r> -35.8871  1.0000</r>
       <r> -35.8863  1.0000</r>
       <r> -35.8863  1.0000</r>
       <r> -35.8780  1.0000</r>
       <r> -35.8774  1.0000</r>
       <r> -35.8774  1.0000</r>
       <r> -35.8772  1.0000</r>
       <r> -35.8771  1.0000</r>
       <r> -35.8767  1.0000</r>
       <r> -35.8767  1.0000</r>
       <r> -35.8763  1.0000</r>
       <r> -35.8668  1.0000</r>
       <r> -35.8668  1.0000</r>
       <r> -35.8666  1.0000</r>
       <r> -35.8665  1.0000</r>
       <r> -35.8661  1.0000</r>
[...]
       <r>  12.0111  0.0000</r>
       <r>  12.0397  0.0000</r>
       <r>  12.0544  0.0000</r>
       <r>  12.1499  0.0000</r>
       <r>  12.1889  0.0000</r>
       <r>  12.4562  0.0000</r>
       <r>  12.4733  0.0000</r>
       <r>  12.5160  0.0000</r>
       <r>  12.5192  0.0000</r>
       <r>  12.5323  0.0000</r>
       <r>  12.5815  0.0000</r>
       <r>  12.6160  0.0000</r>
      </set>
      <set comment="kpoint 95">
       <r> -35.8963  1.0000</r>
       <r> -35.8962  1.0000</r>
       <r> -35.8944  1.0000</r>
       <r> -35.8943  1.0000</r>
       <r> -35.8934  1.0000</r>
       <r> -35.8933  1.0000</r>
       <r> -35.8897  1.0000</r>
       <r> -35.8896  1.0000</r>
       <r> -35.8888  1.0000</r>
       <r> -35.8887  1.0000</r>
       <r> -35.8847  1.0000</r>
       <r> -35.8846  1.0000</r>
       <r> -35.8750  1.0000</r>
       <r> -35.8749  1.0000</r>
       <r> -35.8737  1.0000</r>
       <r> -35.8736  1.0000</r>
       <r> -35.8726  1.0000</r>
       <r> -35.8725  1.0000</r>
       <r> -35.8704  1.0000</r>
       <r> -35.8703  1.0000</r>
       <r> -35.8697  1.0000</r>
       <r> -35.8696  1.0000</r>
       <r> -35.8690  1.0000</r>
       <r> -35.8689  1.0000</r>
       <r> -35.8673  1.0000</r>
       <r> -35.8672  1.0000</r>
       <r> -35.8671  1.0000</r>
       <r> -35.8670  1.0000</r>
       <r> -35.8645  1.0000</r>
       <r> -35.8644  1.0000</r>
       <r> -35.8622  1.0000</r>
       <r> -35.8621  1.0000</r>
       <r> -35.8602  1.0000</r>
       <r> -35.8601  1.0000</r>
       <r> -35.8586  1.0000</r>
       <r> -35.8585  1.0000</r>
       <r> -35.8446  1.0000</r>
       <r> -35.8436  1.0000</r>
       <r> -35.8433  1.0000</r>
       <r> -35.8428  1.0000</r>
       <r> -35.8424  1.0000</r>
       <r> -35.8416  1.0000</r>
       <r> -35.8409  1.0000</r>
       <r> -35.8401  1.0000</r>
       <r> -35.8397  1.0000</r>
       <r> -35.8395  1.0000</r>
       <r> -35.8394  1.0000</r>
       <r> -35.8394  1.0000</r>
       <r> -35.8390  1.0000</r>
       <r> -35.8389  1.0000</r>
       <r> -35.8383  1.0000</r>
       <r> -35.8382  1.0000</r>
       <r> -35.8382  1.0000</r>
       <r> -35.8378  1.0000</r>
       <r>  -5.6521  1.0000</r>
       <r>  -5.4487  1.0000</r>
       <r>  -5.3377  1.0000</r>
       <r>  -5.1388  1.0000</r>
       <r>  -5.0251  1.0000</r>
       <r>  -4.8306  1.0000</r>
       <r>  -4.0995  1.0000</r>
       <r>  -3.9174  1.0000</r>
       <r>  -3.4940  1.0000</r>
       <r>  -3.3196  1.0000</r>
       <r>  -2.9009  1.0000</r>
       <r>  -2.7336  1.0000</r>
       <r>  -2.6200  1.0000</r>
       <r>  -2.4561  1.0000</r>
       <r>  -2.3689  1.0000</r>
       <r>  -2.2084  1.0000</r>
       <r>  -2.0859  1.0000</r>
       <r>  -1.9282  1.0000</r>
       <r>  -1.2416  1.0000</r>
       <r>  -1.0909  1.0000</r>
       <r>  -0.9771  1.0000</r>
       <r>  -0.8304  1.0000</r>
       <r>  -0.7224  1.0000</r>
       <r>  -0.5780  1.0000</r>
       <r>   0.4716  1.0000</r>
       <r>   0.5384  1.0000</r>
       <r>   0.6045  1.0000</r>
       <r>   0.8544  1.0000</r>
       <r>   0.8783  1.0000</r>
       <r>   0.9824  1.0000</r>
       <r>   1.2140  1.0000</r>
       <r>   1.2190  1.0000</r>
       <r>   1.5507  1.0000</r>
       <r>   1.7902  1.0000</r>
       <r>   1.8219  1.0000</r>
       <r>   1.8780  1.0000</r>
       <r>   1.8881  1.0000</r>
       <r>   1.9352  1.0000</r>
       <r>   2.1954  1.0000</r>
       <r>   2.3336  1.0000</r>
       <r>   2.4245  1.0000</r>
       <r>   2.6725  1.0000</r>
       <r>   2.6875  1.0000</r>
       <r>   2.7854  1.0000</r>
       <r>   2.9219  1.0000</r>
       <r>   3.1440  1.0000</r>
       <r>   3.1632  1.0000</r>
       <r>   3.1797  1.0000</r>
       <r>   3.2323  1.0000</r>
       <r>   3.3776  1.0000</r>
       <r>   3.4372  1.0000</r>
       <r>   3.4793  1.0000</r>
       <r>   3.4813  1.0000</r>
       <r>   3.6105  1.0000</r>
       <r>   3.7108  1.0000</r>
       <r>   3.7318  1.0000</r>
       <r>   3.7941  1.0000</r>
       <r>   3.9841  1.0000</r>
       <r>   4.0492  0.9999</r>
       <r>   4.0544  0.9999</r>
       <r>   4.0813  0.9999</r>
       <r>   4.2116  0.9999</r>
       <r>   4.3121  0.9998</r>
       <r>   4.4505  0.9996</r>
       <r>   4.5188  0.9994</r>
       <r>   4.6451  0.9989</r>
       <r>   4.9939  0.9940</r>
       <r>   5.0799  0.9908</r>
       <r>   5.1771  0.9852</r>
       <r>   5.2379  0.9800</r>
       <r>   5.6661  0.8519</r>
       <r>   5.7278  0.8087</r>
       <r>   6.1760  0.3101</r>
       <r>   6.1795  0.3063</r>
       <r>   6.4932  0.0843</r>
       <r>   6.7942  0.0200</r>
       <r>   6.8026  0.0192</r>
       <r>   7.1060  0.0043</r>
       <r>   7.1254  0.0039</r>
       <r>   7.7051  0.0002</r>
       <r>   7.7762  0.0002</r>
       <r>   8.3504  0.0000</r>
       <r>   8.7455  0.0000</r>
       <r>   9.2995  0.0000</r>
       <r>  10.6010  0.0000</r>
       <r>  11.0773  0.0000</r>
       <r>  11.0854  0.0000</r>
       <r>  11.1418  0.0000</r>
       <r>  11.2066  0.0000</r>
       <r>  11.3511  0.0000</r>
       <r>  11.3670  0.0000</r>
       <r>  11.6359  0.0000</r>
       <r>  11.8728  0.0000</r>
       <r>  11.9160  0.0000</r>
       <r>  12.0111  0.0000</r>
       <r>  12.0397  0.0000</r>
       <r>  12.0544  0.0000</r>
       <r>  12.1499  0.0000</r>
       <r>  12.1889  0.0000</r>
       <r>  12.4562  0.0000</r>
       <r>  12.4733  0.0000</r>
       <r>  12.5161  0.0000</r>
       <r>  12.5192  0.0000</r>
       <r>  12.5322  0.0000</r>
       <r>  12.5759  0.0000</r>
       <r>  12.6160  0.0000</r>
      </set>
      <set comment="kpoint 96">
       <r> -35.8955  1.0000</r>
       <r> -35.8955  1.0000</r>
       <r> -35.8954  1.0000</r>
       <r> -35.8954  1.0000</r>
       <r> -35.8953  1.0000</r>
       <r> -35.8952  1.0000</r>
       <r> -35.8878  1.0000</r>
       <r> -35.8877  1.0000</r>
       <r> -35.8876  1.0000</r>
       <r> -35.8876  1.0000</r>
       <r> -35.8875  1.0000</r>
       <r> -35.8874  1.0000</r>
       <r> -35.8707  1.0000</r>
       <r> -35.8707  1.0000</r>
       <r> -35.8706  1.0000</r>
       <r> -35.8706  1.0000</r>
       <r> -35.8706  1.0000</r>
       <r> -35.8705  1.0000</r>
       <r> -35.8695  1.0000</r>
       <r> -35.8694  1.0000</r>
       <r> -35.8693  1.0000</r>
       <r> -35.8693  1.0000</r>
       <r> -35.8693  1.0000</r>
       <r> -35.8693  1.0000</r>
       <r> -35.8692  1.0000</r>
       <r> -35.8692  1.0000</r>
       <r> -35.8692  1.0000</r>
       <r> -35.8692  1.0000</r>
       <r> -35.8691  1.0000</r>
       <r> -35.8690  1.0000</r>
       <r> -35.8603  1.0000</r>
       <r> -35.8602  1.0000</r>
       <r> -35.8602  1.0000</r>
       <r> -35.8601  1.0000</r>
       <r> -35.8601  1.0000</r>
       <r> -35.8600  1.0000</r>
       <r> -35.8439  1.0000</r>
       <r> -35.8438  1.0000</r>
       <r> -35.8436  1.0000</r>
       <r> -35.8427  1.0000</r>
       <r> -35.8425  1.0000</r>
       <r> -35.8424  1.0000</r>
       <r> -35.8402  1.0000</r>
       <r> -35.8401  1.0000</r>
       <r> -35.8400  1.0000</r>
       <r> -35.8394  1.0000</r>
       <r> -35.8392  1.0000</r>
       <r> -35.8391  1.0000</r>
       <r> -35.8390  1.0000</r>
       <r> -35.8389  1.0000</r>
       <r> -35.8387  1.0000</r>
       <r> -35.8382  1.0000</r>
       <r> -35.8381  1.0000</r>
       <r> -35.8379  1.0000</r>
       <r>  -5.3908  1.0000</r>
       <r>  -5.3900  1.0000</r>
       <r>  -5.3892  1.0000</r>
       <r>  -5.1911  1.0000</r>
       <r>  -5.1904  1.0000</r>
       <r>  -5.1896  1.0000</r>
       <r>  -3.5448  1.0000</r>
       <r>  -3.5441  1.0000</r>
       <r>  -3.5433  1.0000</r>
       <r>  -3.3697  1.0000</r>
       <r>  -3.3690  1.0000</r>
       <r>  -3.3683  1.0000</r>
       <r>  -2.0568  1.0000</r>
       <r>  -2.0567  1.0000</r>
       <r>  -2.0566  1.0000</r>
       <r>  -1.9002  1.0000</r>
       <r>  -1.9001  1.0000</r>
       <r>  -1.9000  1.0000</r>
       <r>  -1.3660  1.0000</r>
       <r>  -1.3659  1.0000</r>
       <r>  -1.3658  1.0000</r>
       <r>  -1.2140  1.0000</r>
       <r>  -1.2138  1.0000</r>
       <r>  -1.2137  1.0000</r>
       <r>   0.8208  1.0000</r>
       <r>   0.8220  1.0000</r>
       <r>   0.8233  1.0000</r>
       <r>   1.2384  1.0000</r>
       <r>   1.2385  1.0000</r>
       <r>   1.2387  1.0000</r>
       <r>   1.3650  1.0000</r>
       <r>   1.3652  1.0000</r>
       <r>   1.3654  1.0000</r>
       <r>   1.4947  1.0000</r>
       <r>   1.4959  1.0000</r>
       <r>   1.4971  1.0000</r>
       <r>   2.2722  1.0000</r>
       <r>   2.2727  1.0000</r>
       <r>   2.2731  1.0000</r>
       <r>   2.3399  1.0000</r>
       <r>   2.3403  1.0000</r>
       <r>   2.3406  1.0000</r>
       <r>   2.8256  1.0000</r>
       <r>   2.8264  1.0000</r>
       <r>   2.8273  1.0000</r>
       <r>   3.1120  1.0000</r>
       <r>   3.1121  1.0000</r>
       <r>   3.1122  1.0000</r>
       <r>   3.1860  1.0000</r>
       <r>   3.1862  1.0000</r>
       <r>   3.1863  1.0000</r>
       <r>   3.4332  1.0000</r>
       <r>   3.4342  1.0000</r>
       <r>   3.4352  1.0000</r>
       <r>   3.9352  1.0000</r>
       <r>   3.9353  1.0000</r>
       <r>   3.9355  1.0000</r>
       <r>   4.2805  0.9998</r>
       <r>   4.2806  0.9998</r>
       <r>   4.2807  0.9998</r>
       <r>   4.3751  0.9997</r>
       <r>   4.3752  0.9997</r>
       <r>   4.3753  0.9997</r>
       <r>   4.5268  0.9994</r>
       <r>   4.5270  0.9994</r>
       <r>   4.5272  0.9994</r>
       <r>   5.0481  0.9922</r>
       <r>   5.0485  0.9921</r>
       <r>   5.0489  0.9921</r>
       <r>   5.1135  0.9892</r>
       <r>   5.1139  0.9891</r>
       <r>   5.1143  0.9891</r>
       <r>   6.0799  0.4209</r>
       <r>   6.0801  0.4207</r>
       <r>   6.0803  0.4204</r>
       <r>   6.7087  0.0304</r>
       <r>   6.7089  0.0304</r>
       <r>   6.7091  0.0303</r>
       <r>   7.9426  0.0001</r>
       <r>   7.9434  0.0001</r>
       <r>   7.9441  0.0001</r>
       <r>   8.5103  0.0000</r>
       <r>   8.5110  0.0000</r>
       <r>   8.5118  0.0000</r>
       <r>  11.3121  0.0000</r>
       <r>  11.3132  0.0000</r>
       <r>  11.3142  0.0000</r>
       <r>  11.6260  0.0000</r>
       <r>  11.6275  0.0000</r>
       <r>  11.6289  0.0000</r>
       <r>  11.8362  0.0000</r>
       <r>  11.8363  0.0000</r>
       <r>  11.8364  0.0000</r>
       <r>  12.0101  0.0000</r>
       <r>  12.0103  0.0000</r>
       <r>  12.0104  0.0000</r>
       <r>  12.0615  0.0000</r>
       <r>  12.0629  0.0000</r>
       <r>  12.0643  0.0000</r>
       <r>  12.2790  0.0000</r>
       <r>  12.2797  0.0000</r>
       <r>  12.2803  0.0000</r>
       <r>  12.5830  0.0000</r>
       <r>  12.5833  0.0000</r>
       <r>  12.5930  0.0000</r>
       <r>  12.8998  0.0000</r>
      </set>
      <set comment="kpoint 97">
       <r> -35.8940  1.0000</r>
       <r> -35.8940  1.0000</r>
       <r> -35.8938  1.0000</r>
       <r> -35.8938  1.0000</r>
       <r> -35.8912  1.0000</r>
       <r> -35.8910  1.0000</r>
       <r> -35.8894  1.0000</r>
       <r> -35.8892  1.0000</r>
       <r> -35.8868  1.0000</r>
       <r> -35.8868  1.0000</r>
       <r> -35.8866  1.0000</r>
       <r> -35.8866  1.0000</r>
       <r> -35.8777  1.0000</r>
       <r> -35.8775  1.0000</r>
       <r> -35.8771  1.0000</r>
       <r> -35.8771  1.0000</r>
       <r> -35.8770  1.0000</r>
       <r> -35.8770  1.0000</r>
       <r> -35.8768  1.0000</r>
       <r> -35.8766  1.0000</r>
       <r> -35.8665  1.0000</r>
       <r> -35.8665  1.0000</r>
       <r> -35.8664  1.0000</r>
       <r> -35.8664  1.0000</r>
       <r> -35.8663  1.0000</r>
       <r> -35.8663  1.0000</r>
       <r> -35.8662  1.0000</r>
       <r> -35.8661  1.0000</r>
       <r> -35.8620  1.0000</r>
       <r> -35.8620  1.0000</r>
       <r> -35.8619  1.0000</r>
       <r> -35.8619  1.0000</r>
       <r> -35.8602  1.0000</r>
       <r> -35.8601  1.0000</r>
       <r> -35.8575  1.0000</r>
       <r> -35.8574  1.0000</r>
       <r> -35.8453  1.0000</r>
       <r> -35.8440  1.0000</r>
       <r> -35.8426  1.0000</r>
       <r> -35.8425  1.0000</r>
       <r> -35.8413  1.0000</r>
       <r> -35.8413  1.0000</r>
       <r> -35.8408  1.0000</r>
       <r> -35.8408  1.0000</r>
       <r> -35.8398  1.0000</r>
       <r> -35.8398  1.0000</r>
       <r> -35.8396  1.0000</r>
       <r> -35.8395  1.0000</r>
       <r> -35.8389  1.0000</r>
       <r> -35.8388  1.0000</r>
       <r> -35.8386  1.0000</r>
       <r> -35.8386  1.0000</r>
       <r> -35.8378  1.0000</r>
       <r> -35.8377  1.0000</r>
       <r>  -5.8628  1.0000</r>
       <r>  -5.6563  1.0000</r>
       <r>  -4.9213  1.0000</r>
       <r>  -4.9213  1.0000</r>
       <r>  -4.7283  1.0000</r>
       <r>  -4.7282  1.0000</r>
       <r>  -3.9977  1.0000</r>
       <r>  -3.9977  1.0000</r>
       <r>  -3.8169  1.0000</r>
       <r>  -3.8169  1.0000</r>
       <r>  -3.0991  1.0000</r>
       <r>  -3.0991  1.0000</r>
       <r>  -2.9295  1.0000</r>
       <r>  -2.9295  1.0000</r>
       <r>  -2.2309  1.0000</r>
       <r>  -2.0713  1.0000</r>
       <r>  -1.6390  1.0000</r>
       <r>  -1.4860  1.0000</r>
       <r>  -0.9885  1.0000</r>
       <r>  -0.8422  1.0000</r>
       <r>  -0.3464  1.0000</r>
       <r>  -0.3464  1.0000</r>
       <r>  -0.2056  1.0000</r>
       <r>  -0.2056  1.0000</r>
       <r>   0.0181  1.0000</r>
       <r>   0.1564  1.0000</r>
       <r>   0.3096  1.0000</r>
       <r>   0.9955  1.0000</r>
       <r>   1.0941  1.0000</r>
       <r>   1.2017  1.0000</r>
       <r>   1.2734  1.0000</r>
       <r>   1.2734  1.0000</r>
       <r>   1.3235  1.0000</r>
       <r>   1.3236  1.0000</r>
       <r>   1.3948  1.0000</r>
       <r>   1.3948  1.0000</r>
       <r>   1.4822  1.0000</r>
       <r>   1.5871  1.0000</r>
       <r>   1.9821  1.0000</r>
       <r>   1.9821  1.0000</r>
       <r>   2.3067  1.0000</r>
       <r>   2.3067  1.0000</r>
       <r>   2.8886  1.0000</r>
       <r>   2.8886  1.0000</r>
       <r>   2.9367  1.0000</r>
       <r>   2.9367  1.0000</r>
       <r>   2.9935  1.0000</r>
       <r>   2.9935  1.0000</r>
       <r>   3.1706  1.0000</r>
       <r>   3.1706  1.0000</r>
       <r>   3.6072  1.0000</r>
       <r>   3.6072  1.0000</r>
       <r>   3.6719  1.0000</r>
       <r>   3.6719  1.0000</r>
       <r>   3.7639  1.0000</r>
       <r>   3.7639  1.0000</r>
       <r>   3.8623  1.0000</r>
       <r>   3.8623  1.0000</r>
       <r>   3.8960  1.0000</r>
       <r>   3.8960  1.0000</r>
       <r>   4.0821  0.9999</r>
       <r>   4.4430  0.9996</r>
       <r>   4.6886  0.9987</r>
       <r>   4.7244  0.9984</r>
       <r>   4.7244  0.9984</r>
       <r>   4.7841  0.9979</r>
       <r>   4.7841  0.9979</r>
       <r>   5.0346  0.9927</r>
       <r>   5.7940  0.7522</r>
       <r>   5.8695  0.6754</r>
       <r>   5.9611  0.5682</r>
       <r>   6.1226  0.3700</r>
       <r>   6.1849  0.3007</r>
       <r>   6.4580  0.0989</r>
       <r>   6.5664  0.0600</r>
       <r>   6.8942  0.0122</r>
       <r>   6.8942  0.0122</r>
       <r>   7.0417  0.0059</r>
       <r>   7.4944  0.0006</r>
       <r>   7.4944  0.0006</r>
       <r>   8.4110  0.0000</r>
       <r>   8.4110  0.0000</r>
       <r>   8.9707  0.0000</r>
       <r>   8.9707  0.0000</r>
       <r>  10.2098  0.0000</r>
       <r>  10.2098  0.0000</r>
       <r>  10.6374  0.0000</r>
       <r>  10.6374  0.0000</r>
       <r>  10.9512  0.0000</r>
       <r>  11.2134  0.0000</r>
       <r>  11.2134  0.0000</r>
       <r>  11.4245  0.0000</r>
       <r>  11.4412  0.0000</r>
       <r>  11.4412  0.0000</r>
       <r>  11.5389  0.0000</r>
       <r>  11.5745  0.0000</r>
       <r>  11.5745  0.0000</r>
       <r>  11.9810  0.0000</r>
       <r>  11.9810  0.0000</r>
       <r>  12.0415  0.0000</r>
       <r>  12.0415  0.0000</r>
       <r>  12.0531  0.0000</r>
       <r>  12.0544  0.0000</r>
       <r>  12.1459  0.0000</r>
       <r>  12.3496  0.0000</r>
       <r>  12.3497  0.0000</r>
      </set>
     </set>
    </set>
   </array>
  </eigenvalues>
 </calculation>
 <structure name="finalpos" >
  <crystal>
   <varray name="basis" >
    <v>       9.22926428       0.00000000       0.00000000 </v>
    <v>      -4.61463214       7.99277733       0.00000000 </v>
    <v>       0.00000000       0.00000000       7.04667455 </v>
   </varray>
   <i name="volume">    519.81524302</i>
   <varray name="rec_basis" >
    <v>       0.10835100       0.06255648       0.00000000 </v>
    <v>       0.00000000       0.12511296       0.00000000 </v>
    <v>       0.00000000       0.00000000       0.14191091 </v>
   </varray>
  </crystal>
  <varray name="positions" >
   <v>       0.00086119       0.00000000       0.00086119 </v>
   <v>       0.33333333       0.00000000       0.00000000 </v>
   <v>       0.66666667       0.00000000       0.00000000 </v>
   <v>       0.00000000       0.33333333       0.00000000 </v>
   <v>       0.33333333       0.33333333       0.00000000 </v>
   <v>       0.66666667       0.33333333       0.00000000 </v>
   <v>       0.00000000       0.66666667       0.00000000 </v>
   <v>       0.33333333       0.66666667       0.00000000 </v>
   <v>       0.66666667       0.66666667       0.00000000 </v>
   <v>       0.00000000       0.00000000       0.50000000 </v>
   <v>       0.33333333       0.00000000       0.50000000 </v>
   <v>       0.66666667       0.00000000       0.50000000 </v>
   <v>       0.00000000       0.33333333       0.50000000 </v>
   <v>       0.33333333       0.33333333       0.50000000 </v>
   <v>       0.66666667       0.33333333       0.50000000 </v>
   <v>       0.00000000       0.66666667       0.50000000 </v>
   <v>       0.33333333       0.66666667       0.50000000 </v>
   <v>       0.66666667       0.66666667       0.50000000 </v>
   <v>       0.11111111       0.22222222       0.25000000 </v>
   <v>       0.44444444       0.22222222       0.25000000 </v>
   <v>       0.77777778       0.22222222       0.25000000 </v>
   <v>       0.11111111       0.55555556       0.25000000 </v>
   <v>       0.44444444       0.55555556       0.25000000 </v>
   <v>       0.77777778       0.55555556       0.25000000 </v>
   <v>       0.11111111       0.88888889       0.25000000 </v>
   <v>       0.44444444       0.88888889       0.25000000 </v>
   <v>       0.77777778       0.88888889       0.25000000 </v>
   <v>       0.11111111       0.22222222       0.75000000 </v>
   <v>       0.44444444       0.22222222       0.75000000 </v>
   <v>       0.77777778       0.22222222       0.75000000 </v>
   <v>       0.11111111       0.55555556       0.75000000 </v>
   <v>       0.44444444       0.55555556       0.75000000 </v>
   <v>       0.77777778       0.55555556       0.75000000 </v>
   <v>       0.11111111       0.88888889       0.75000000 </v>
   <v>       0.44444444       0.88888889       0.75000000 </v>
   <v>       0.77777778       0.88888889       0.75000000 </v>
   <v>       0.22222222       0.11111111       0.25000000 </v>
   <v>       0.55555556       0.11111111       0.25000000 </v>
   <v>       0.88888889       0.11111111       0.25000000 </v>
   <v>       0.22222222       0.44444444       0.25000000 </v>
   <v>       0.55555556       0.44444444       0.25000000 </v>
   <v>       0.88888889       0.44444444       0.25000000 </v>
   <v>       0.22222222       0.77777778       0.25000000 </v>
   <v>       0.55555556       0.77777778       0.25000000 </v>
   <v>       0.88888889       0.77777778       0.25000000 </v>
   <v>       0.22222222       0.11111111       0.75000000 </v>
   <v>       0.55555556       0.11111111       0.75000000 </v>
   <v>       0.88888889       0.11111111       0.75000000 </v>
   <v>       0.22222222       0.44444444       0.75000000 </v>
   <v>       0.55555556       0.44444444       0.75000000 </v>
   <v>       0.88888889       0.44444444       0.75000000 </v>
   <v>       0.22222222       0.77777778       0.75000000 </v>
   <v>       0.55555556       0.77777778       0.75000000 </v>
   <v>       0.88888889       0.77777778       0.75000000 </v>
  </varray>
 </structure>
</modeling>
