<?xml version="1.0" encoding="ISO-8859-1"?>
<modeling>
 <generator>
  <i name="program" type="string">vasp</i>
  <i name="version" type="string">4.6.35 </i>
  <i name="subversion" type="string">3Apr08 complex  parallel</i>
  <i name="platform" type="string">LinuxIFC</i>
  <i name="date" type="string">2011 05 26</i>
  <i name="time" type="string">19:24:12</i>
 </generator>
 <incar>
  <i type="string" name="PREC">accurate</i>
  <i type="int" name="IALGO">    38</i>
  <i type="logical" name="ADDGRID"> T  </i>
  <i type="int" name="NELMIN">     5</i>
  <i name="EDIFF">      0.00000001</i>
  <i type="int" name="IBRION">    -1</i>
  <i name="ENCUT">    500.00000000</i>
  <i type="logical" name="LREAL"> F  </i>
  <i type="int" name="ISMEAR">    -1</i>
  <i name="SIGMA">      0.20000000</i>
  <i type="logical" name="LWAVE"> F  </i>
  <i type="logical" name="LCHARG"> F  </i>
 </incar>
 <kpoints>
  <generation param="Monkhorst-Pack">
   <v type="int" name="divisions">       6       6       9</v>
   <v name="usershift">      0.50000000       0.50000000       0.00000000 </v>
   <v name="genvec1">      0.16666667       0.00000000       0.00000000 </v>
   <v name="genvec2">      0.00000000       0.16666667       0.00000000 </v>
   <v name="genvec3">      0.00000000       0.00000000       0.11111111 </v>
   <v name="shift">      0.00000000       0.00000000       0.00000000 </v>
  </generation>
  <varray name="kpointlist" >
   <v>       0.00000000       0.00000000       0.00000000 </v>
   <v>       0.16666667       0.00000000       0.00000000 </v>
   <v>       0.33333333       0.00000000       0.00000000 </v>
   <v>       0.50000000       0.00000000       0.00000000 </v>
   <v>       0.00000000       0.16666667       0.00000000 </v>
   <v>       0.16666667       0.16666667       0.00000000 </v>
   <v>       0.33333333       0.16666667       0.00000000 </v>
   <v>       0.50000000       0.16666667       0.00000000 </v>
   <v>      -0.33333333       0.16666667       0.00000000 </v>
   <v>      -0.16666667       0.16666667       0.00000000 </v>
   <v>       0.00000000       0.33333333       0.00000000 </v>
   <v>       0.16666667       0.33333333       0.00000000 </v>
   <v>       0.33333333       0.33333333       0.00000000 </v>
   <v>       0.50000000       0.33333333       0.00000000 </v>
   <v>      -0.33333333       0.33333333       0.00000000 </v>
   <v>      -0.16666667       0.33333333       0.00000000 </v>
   <v>       0.00000000       0.50000000       0.00000000 </v>
   <v>       0.16666667       0.50000000       0.00000000 </v>
   <v>       0.33333333       0.50000000       0.00000000 </v>
   <v>       0.50000000       0.50000000       0.00000000 </v>
   <v>       0.00000000       0.00000000       0.11111111 </v>
   <v>       0.16666667       0.00000000       0.11111111 </v>
   <v>       0.33333333       0.00000000       0.11111111 </v>
   <v>       0.50000000       0.00000000       0.11111111 </v>
   <v>      -0.33333333       0.00000000       0.11111111 </v>
   <v>      -0.16666667       0.00000000       0.11111111 </v>
   <v>       0.00000000       0.16666667       0.11111111 </v>
   <v>       0.16666667       0.16666667       0.11111111 </v>
   <v>       0.33333333       0.16666667       0.11111111 </v>
   <v>       0.50000000       0.16666667       0.11111111 </v>
   <v>      -0.33333333       0.16666667       0.11111111 </v>
   <v>      -0.16666667       0.16666667       0.11111111 </v>
   <v>       0.00000000       0.33333333       0.11111111 </v>
   <v>       0.16666667       0.33333333       0.11111111 </v>
   <v>       0.33333333       0.33333333       0.11111111 </v>
   <v>       0.50000000       0.33333333       0.11111111 </v>
   <v>      -0.33333333       0.33333333       0.11111111 </v>
   <v>      -0.16666667       0.33333333       0.11111111 </v>
   <v>       0.00000000       0.50000000       0.11111111 </v>
   <v>       0.16666667       0.50000000       0.11111111 </v>
   <v>       0.33333333       0.50000000       0.11111111 </v>
   <v>       0.50000000       0.50000000       0.11111111 </v>
   <v>      -0.33333333       0.50000000       0.11111111 </v>
   <v>      -0.16666667       0.50000000       0.11111111 </v>
   <v>       0.00000000      -0.33333333       0.11111111 </v>
   <v>       0.16666667      -0.33333333       0.11111111 </v>
   <v>       0.33333333      -0.33333333       0.11111111 </v>
   <v>       0.50000000      -0.33333333       0.11111111 </v>
   <v>      -0.33333333      -0.33333333       0.11111111 </v>
   <v>      -0.16666667      -0.33333333       0.11111111 </v>
   <v>       0.00000000      -0.16666667       0.11111111 </v>
   <v>       0.16666667      -0.16666667       0.11111111 </v>
   <v>       0.33333333      -0.16666667       0.11111111 </v>
   <v>       0.50000000      -0.16666667       0.11111111 </v>
   <v>      -0.33333333      -0.16666667       0.11111111 </v>
   <v>      -0.16666667      -0.16666667       0.11111111 </v>
   <v>       0.00000000       0.00000000       0.22222222 </v>
   <v>       0.16666667       0.00000000       0.22222222 </v>
   <v>       0.33333333       0.00000000       0.22222222 </v>
   <v>       0.50000000       0.00000000       0.22222222 </v>
   <v>      -0.33333333       0.00000000       0.22222222 </v>
   <v>      -0.16666667       0.00000000       0.22222222 </v>
   <v>       0.00000000       0.16666667       0.22222222 </v>
   <v>       0.16666667       0.16666667       0.22222222 </v>
   <v>       0.33333333       0.16666667       0.22222222 </v>
   <v>       0.50000000       0.16666667       0.22222222 </v>
   <v>      -0.33333333       0.16666667       0.22222222 </v>
   <v>      -0.16666667       0.16666667       0.22222222 </v>
   <v>       0.00000000       0.33333333       0.22222222 </v>
   <v>       0.16666667       0.33333333       0.22222222 </v>
   <v>       0.33333333       0.33333333       0.22222222 </v>
   <v>       0.50000000       0.33333333       0.22222222 </v>
   <v>      -0.33333333       0.33333333       0.22222222 </v>
   <v>      -0.16666667       0.33333333       0.22222222 </v>
   <v>       0.00000000       0.50000000       0.22222222 </v>
   <v>       0.16666667       0.50000000       0.22222222 </v>
   <v>       0.33333333       0.50000000       0.22222222 </v>
   <v>       0.50000000       0.50000000       0.22222222 </v>
   <v>      -0.33333333       0.50000000       0.22222222 </v>
   <v>      -0.16666667       0.50000000       0.22222222 </v>
   <v>       0.00000000      -0.33333333       0.22222222 </v>
   <v>       0.16666667      -0.33333333       0.22222222 </v>
   <v>       0.33333333      -0.33333333       0.22222222 </v>
   <v>       0.50000000      -0.33333333       0.22222222 </v>
   <v>      -0.33333333      -0.33333333       0.22222222 </v>
   <v>      -0.16666667      -0.33333333       0.22222222 </v>
   <v>       0.00000000      -0.16666667       0.22222222 </v>
   <v>       0.16666667      -0.16666667       0.22222222 </v>
   <v>       0.33333333      -0.16666667       0.22222222 </v>
   <v>       0.50000000      -0.16666667       0.22222222 </v>
   <v>      -0.33333333      -0.16666667       0.22222222 </v>
   <v>      -0.16666667      -0.16666667       0.22222222 </v>
   <v>       0.00000000       0.00000000       0.33333333 </v>
   <v>       0.16666667       0.00000000       0.33333333 </v>
   <v>       0.33333333       0.00000000       0.33333333 </v>
   <v>       0.50000000       0.00000000       0.33333333 </v>
   <v>      -0.33333333       0.00000000       0.33333333 </v>
   <v>      -0.16666667       0.00000000       0.33333333 </v>
   <v>       0.00000000       0.16666667       0.33333333 </v>
   <v>       0.16666667       0.16666667       0.33333333 </v>
   <v>       0.33333333       0.16666667       0.33333333 </v>
   <v>       0.50000000       0.16666667       0.33333333 </v>
   <v>      -0.33333333       0.16666667       0.33333333 </v>
   <v>      -0.16666667       0.16666667       0.33333333 </v>
   <v>       0.00000000       0.33333333       0.33333333 </v>
   <v>       0.16666667       0.33333333       0.33333333 </v>
   <v>       0.33333333       0.33333333       0.33333333 </v>
   <v>       0.50000000       0.33333333       0.33333333 </v>
   <v>      -0.33333333       0.33333333       0.33333333 </v>
   <v>      -0.16666667       0.33333333       0.33333333 </v>
   <v>       0.00000000       0.50000000       0.33333333 </v>
   <v>       0.16666667       0.50000000       0.33333333 </v>
   <v>       0.33333333       0.50000000       0.33333333 </v>
   <v>       0.50000000       0.50000000       0.33333333 </v>
   <v>      -0.33333333       0.50000000       0.33333333 </v>
   <v>      -0.16666667       0.50000000       0.33333333 </v>
   <v>       0.00000000      -0.33333333       0.33333333 </v>
   <v>       0.16666667      -0.33333333       0.33333333 </v>
   <v>       0.33333333      -0.33333333       0.33333333 </v>
   <v>       0.50000000      -0.33333333       0.33333333 </v>
   <v>      -0.33333333      -0.33333333       0.33333333 </v>
   <v>      -0.16666667      -0.33333333       0.33333333 </v>
   <v>       0.00000000      -0.16666667       0.33333333 </v>
   <v>       0.16666667      -0.16666667       0.33333333 </v>
   <v>       0.33333333      -0.16666667       0.33333333 </v>
   <v>       0.50000000      -0.16666667       0.33333333 </v>
   <v>      -0.33333333      -0.16666667       0.33333333 </v>
   <v>      -0.16666667      -0.16666667       0.33333333 </v>
   <v>       0.00000000       0.00000000       0.44444444 </v>
   <v>       0.16666667       0.00000000       0.44444444 </v>
   <v>       0.33333333       0.00000000       0.44444444 </v>
   <v>       0.50000000       0.00000000       0.44444444 </v>
   <v>      -0.33333333       0.00000000       0.44444444 </v>
   <v>      -0.16666667       0.00000000       0.44444444 </v>
   <v>       0.00000000       0.16666667       0.44444444 </v>
   <v>       0.16666667       0.16666667       0.44444444 </v>
   <v>       0.33333333       0.16666667       0.44444444 </v>
   <v>       0.50000000       0.16666667       0.44444444 </v>
   <v>      -0.33333333       0.16666667       0.44444444 </v>
   <v>      -0.16666667       0.16666667       0.44444444 </v>
   <v>       0.00000000       0.33333333       0.44444444 </v>
   <v>       0.16666667       0.33333333       0.44444444 </v>
   <v>       0.33333333       0.33333333       0.44444444 </v>
   <v>       0.50000000       0.33333333       0.44444444 </v>
   <v>      -0.33333333       0.33333333       0.44444444 </v>
   <v>      -0.16666667       0.33333333       0.44444444 </v>
   <v>       0.00000000       0.50000000       0.44444444 </v>
   <v>       0.16666667       0.50000000       0.44444444 </v>
   <v>       0.33333333       0.50000000       0.44444444 </v>
   <v>       0.50000000       0.50000000       0.44444444 </v>
   <v>      -0.33333333       0.50000000       0.44444444 </v>
   <v>      -0.16666667       0.50000000       0.44444444 </v>
   <v>       0.00000000      -0.33333333       0.44444444 </v>
   <v>       0.16666667      -0.33333333       0.44444444 </v>
   <v>       0.33333333      -0.33333333       0.44444444 </v>
   <v>       0.50000000      -0.33333333       0.44444444 </v>
   <v>      -0.33333333      -0.33333333       0.44444444 </v>
   <v>      -0.16666667      -0.33333333       0.44444444 </v>
   <v>       0.00000000      -0.16666667       0.44444444 </v>
   <v>       0.16666667      -0.16666667       0.44444444 </v>
   <v>       0.33333333      -0.16666667       0.44444444 </v>
   <v>       0.50000000      -0.16666667       0.44444444 </v>
   <v>      -0.33333333      -0.16666667       0.44444444 </v>
   <v>      -0.16666667      -0.16666667       0.44444444 </v>
  </varray>
  <varray name="weights" >
   <v>       0.00308642 </v>
   <v>       0.00617284 </v>
   <v>       0.00617284 </v>
   <v>       0.00308642 </v>
   <v>       0.00617284 </v>
   <v>       0.00617284 </v>
   <v>       0.00617284 </v>
   <v>       0.00617284 </v>
   <v>       0.00617284 </v>
   <v>       0.00617284 </v>
   <v>       0.00617284 </v>
   <v>       0.00617284 </v>
   <v>       0.00617284 </v>
   <v>       0.00617284 </v>
   <v>       0.00617284 </v>
   <v>       0.00617284 </v>
   <v>       0.00308642 </v>
   <v>       0.00617284 </v>
   <v>       0.00617284 </v>
   <v>       0.00308642 </v>
   <v>       0.00617284 </v>
   <v>       0.00617284 </v>
   <v>       0.00617284 </v>
   <v>       0.00617284 </v>
   <v>       0.00617284 </v>
   <v>       0.00617284 </v>
   <v>       0.00617284 </v>
   <v>       0.00617284 </v>
   <v>       0.00617284 </v>
   <v>       0.00617284 </v>
   <v>       0.00617284 </v>
   <v>       0.00617284 </v>
   <v>       0.00617284 </v>
   <v>       0.00617284 </v>
   <v>       0.00617284 </v>
   <v>       0.00617284 </v>
   <v>       0.00617284 </v>
   <v>       0.00617284 </v>
   <v>       0.00617284 </v>
   <v>       0.00617284 </v>
   <v>       0.00617284 </v>
   <v>       0.00617284 </v>
   <v>       0.00617284 </v>
   <v>       0.00617284 </v>
   <v>       0.00617284 </v>
   <v>       0.00617284 </v>
   <v>       0.00617284 </v>
   <v>       0.00617284 </v>
   <v>       0.00617284 </v>
   <v>       0.00617284 </v>
   <v>       0.00617284 </v>
   <v>       0.00617284 </v>
   <v>       0.00617284 </v>
   <v>       0.00617284 </v>
   <v>       0.00617284 </v>
   <v>       0.00617284 </v>
   <v>       0.00617284 </v>
   <v>       0.00617284 </v>
   <v>       0.00617284 </v>
   <v>       0.00617284 </v>
   <v>       0.00617284 </v>
   <v>       0.00617284 </v>
   <v>       0.00617284 </v>
   <v>       0.00617284 </v>
   <v>       0.00617284 </v>
   <v>       0.00617284 </v>
   <v>       0.00617284 </v>
   <v>       0.00617284 </v>
   <v>       0.00617284 </v>
   <v>       0.00617284 </v>
   <v>       0.00617284 </v>
   <v>       0.00617284 </v>
   <v>       0.00617284 </v>
   <v>       0.00617284 </v>
   <v>       0.00617284 </v>
   <v>       0.00617284 </v>
   <v>       0.00617284 </v>
   <v>       0.00617284 </v>
   <v>       0.00617284 </v>
   <v>       0.00617284 </v>
   <v>       0.00617284 </v>
   <v>       0.00617284 </v>
   <v>       0.00617284 </v>
   <v>       0.00617284 </v>
   <v>       0.00617284 </v>
   <v>       0.00617284 </v>
   <v>       0.00617284 </v>
   <v>       0.00617284 </v>
   <v>       0.00617284 </v>
   <v>       0.00617284 </v>
   <v>       0.00617284 </v>
   <v>       0.00617284 </v>
   <v>       0.00617284 </v>
   <v>       0.00617284 </v>
   <v>       0.00617284 </v>
   <v>       0.00617284 </v>
   <v>       0.00617284 </v>
   <v>       0.00617284 </v>
   <v>       0.00617284 </v>
   <v>       0.00617284 </v>
   <v>       0.00617284 </v>
   <v>       0.00617284 </v>
   <v>       0.00617284 </v>
   <v>       0.00617284 </v>
   <v>       0.00617284 </v>
   <v>       0.00617284 </v>
   <v>       0.00617284 </v>
   <v>       0.00617284 </v>
   <v>       0.00617284 </v>
   <v>       0.00617284 </v>
   <v>       0.00617284 </v>
   <v>       0.00617284 </v>
   <v>       0.00617284 </v>
   <v>       0.00617284 </v>
   <v>       0.00617284 </v>
   <v>       0.00617284 </v>
   <v>       0.00617284 </v>
   <v>       0.00617284 </v>
   <v>       0.00617284 </v>
   <v>       0.00617284 </v>
   <v>       0.00617284 </v>
   <v>       0.00617284 </v>
   <v>       0.00617284 </v>
   <v>       0.00617284 </v>
   <v>       0.00617284 </v>
   <v>       0.00617284 </v>
   <v>       0.00617284 </v>
   <v>       0.00617284 </v>
   <v>       0.00617284 </v>
   <v>       0.00617284 </v>
   <v>       0.00617284 </v>
   <v>       0.00617284 </v>
   <v>       0.00617284 </v>
   <v>       0.00617284 </v>
   <v>       0.00617284 </v>
   <v>       0.00617284 </v>
   <v>       0.00617284 </v>
   <v>       0.00617284 </v>
   <v>       0.00617284 </v>
   <v>       0.00617284 </v>
   <v>       0.00617284 </v>
   <v>       0.00617284 </v>
   <v>       0.00617284 </v>
   <v>       0.00617284 </v>
   <v>       0.00617284 </v>
   <v>       0.00617284 </v>
   <v>       0.00617284 </v>
   <v>       0.00617284 </v>
   <v>       0.00617284 </v>
   <v>       0.00617284 </v>
   <v>       0.00617284 </v>
   <v>       0.00617284 </v>
   <v>       0.00617284 </v>
   <v>       0.00617284 </v>
   <v>       0.00617284 </v>
   <v>       0.00617284 </v>
   <v>       0.00617284 </v>
   <v>       0.00617284 </v>
   <v>       0.00617284 </v>
   <v>       0.00617284 </v>
   <v>       0.00617284 </v>
   <v>       0.00617284 </v>
   <v>       0.00617284 </v>
   <v>       0.00617284 </v>
  </varray>
 </kpoints>
 <parameters>
  <separator name="general" >
   <i type="string" name="SYSTEM">unknown system</i>
   <i type="logical" name="LCOMPAT"> F  </i>
  </separator>
  <separator name="electronic" >
   <i type="string" name="PREC">accura</i>
   <i name="ENMAX">    500.00000000</i>
   <i name="ENAUG">    535.51400000</i>
   <i name="EDIFF">      0.00000001</i>
   <i type="int" name="IALGO">    38</i>
   <i type="int" name="IWAVPR">    10</i>
   <i type="int" name="NBANDS">   154</i>
   <i name="NELECT">    252.00000000</i>
   <separator name="electronic smearing" >
    <i type="int" name="ISMEAR">    -1</i>
    <i name="SIGMA">      0.20000000</i>
   </separator>
   <separator name="electronic projectors" >
    <i type="logical" name="LREAL"> F  </i>
    <v name="ROPT">      0.00000000      0.00000000</v>
    <i type="int" name="LMAXPAW">  -100</i>
    <i type="int" name="LMAXMIX">     2</i>
   </separator>
   <separator name="electronic startup" >
    <i type="int" name="ISTART">     0</i>
    <i type="int" name="ICHARG">     2</i>
    <i type="int" name="INIWAV">     1</i>
   </separator>
   <separator name="electronic spin" >
    <i type="int" name="ISPIN">     1</i>
    <i type="logical" name="LNONCOLLINEAR"> F  </i>
    <v name="MAGMOM">      1.00000000      1.00000000      1.00000000      1.00000000      1.00000000      1.00000000      1.00000000      1.00000000      1.00000000      1.00000000      1.00000000      1.00000000      1.00000000      1.00000000      1.00000000      1.00000000      1.00000000      1.00000000      1.00000000      1.00000000
      1.00000000      1.00000000      1.00000000      1.00000000      1.00000000      1.00000000      1.00000000      1.00000000      1.00000000      1.00000000      1.00000000      1.00000000      1.00000000      1.00000000      1.00000000      1.00000000      1.00000000      1.00000000      1.00000000      1.00000000
      1.00000000      1.00000000      1.00000000      1.00000000      1.00000000      1.00000000      1.00000000      1.00000000      1.00000000      1.00000000      1.00000000      1.00000000      1.00000000      1.00000000</v>
    <i name="NUPDOWN">     -1.00000000</i>
    <i type="logical" name="LSORBIT"> F  </i>
    <v name="SAXIS">      0.00000000      0.00000000      1.00000000</v>
    <i type="logical" name="LSPIRAL"> F  </i>
    <v name="QSPIRAL">      0.00000000      0.00000000      0.00000000</v>
    <i type="logical" name="LZEROZ"> F  </i>
   </separator>
   <separator name="electronic exchange-correlation" >
    <i type="string" name="GGA">--</i>
    <i type="int" name="VOSKOWN">     0</i>
    <i type="logical" name="LASPH"> F  </i>
    <i type="logical" name="LMETAGGA"> F  </i>
    <i type="string" name="GGA2">--</i>
   </separator>
   <separator name="electronic convergence" >
    <i type="int" name="NELM">    60</i>
    <i type="int" name="NELMDL">     0</i>
    <i type="int" name="NELMIN">     5</i>
    <i name="ENINI">    500.00000000</i>
    <separator name="electronic convergence detail" >
     <i type="logical" name="LDIAG"> T  </i>
     <i name="WEIMIN">      0.00000000</i>
     <i name="EBREAK">      0.00000000</i>
     <i name="DEPER">      0.30000000</i>
     <i type="int" name="NRMM">     4</i>
     <i name="TIME">      0.10000000</i>
    </separator>
   </separator>
   <separator name="electronic mixer" >
    <i name="AMIX">      0.40000000</i>
    <i name="BMIX">      1.00000000</i>
    <i name="AMIN">      0.10000000</i>
    <i name="AMIX_MAG">      1.60000000</i>
    <i name="BMIX_MAG">      1.00000000</i>
    <separator name="electronic mixer details" >
     <i type="int" name="IMIX">     4</i>
     <i type="int" name="MAXMIX">   -45</i>
     <i name="WC">    100.00000000</i>
     <i type="int" name="INIMIX">     1</i>
     <i type="int" name="MIXPRE">     1</i>
     <i type="int" name="MREMOVE">     5</i>
    </separator>
   </separator>
   <separator name="electronic dipolcorrection" >
    <i type="int" name="IDIPOL">     0</i>
    <i type="logical" name="LDIPOL"> F  </i>
    <v name="DIPOL">   -100.00000000</v>
    <i name="EFIELD">      0.00000000</i>
   </separator>
  </separator>
  <separator name="grids" >
   <i type="int" name="NGX">    70</i>
   <i type="int" name="NGY">    70</i>
   <i type="int" name="NGZ">    54</i>
   <i type="int" name="NGXF">   140</i>
   <i type="int" name="NGYF">   140</i>
   <i type="int" name="NGZF">   108</i>
   <i type="logical" name="ADDGRID"> T  </i>
  </separator>
  <separator name="ionic" >
   <i type="int" name="NSW">     0</i>
   <i type="int" name="IBRION">    -1</i>
   <i type="int" name="ISIF">     2</i>
   <i name="PSTRESS">      0.00000000</i>
   <i name="EDIFFG">      0.00000010</i>
   <i type="int" name="NFREE">     0</i>
   <i name="POTIM">      0.50000000</i>
   <i name="SMASS">     -3.00000000</i>
  </separator>
  <separator name="ionic md" >
   <i name="TEBEG">      0.00010000</i>
   <i name="TEEND">      0.00010000</i>
   <i type="int" name="NBLOCK">     1</i>
   <i type="int" name="KBLOCK">     1</i>
   <i type="int" name="NPACO">   256</i>
   <i name="APACO">     16.00000000</i>
  </separator>
  <separator name="symmetry" >
   <i type="int" name="ISYM">     2</i>
   <i name="SYMPREC">      0.00001000</i>
  </separator>
  <separator name="dos" >
   <i type="logical" name="LORBIT"> F  </i>
   <v name="RWIGS">     -1.00000000     -1.00000000</v>
   <i type="int" name="NEDOS">   301</i>
   <i name="EMIN">     10.00000000</i>
   <i name="EMAX">    -10.00000000</i>
  </separator>
  <separator name="writing" >
   <i type="int" name="NWRITE">     2</i>
   <i type="logical" name="LWAVE"> F  </i>
   <i type="logical" name="LCHARG"> F  </i>
   <i type="logical" name="LPARD"> F  </i>
   <i type="logical" name="LVTOT"> F  </i>
   <i type="logical" name="LELF"> F  </i>
   <i type="logical" name="LOPTICS"> F  </i>
   <v name="STM">      0.00000000      0.00000000      0.00000000      0.00000000      0.00000000</v>
  </separator>
  <separator name="performance" >
   <i type="int" name="NPAR">     8</i>
   <i type="int" name="NSIM">     4</i>
   <i type="int" name="NBLK">   256</i>
   <i type="logical" name="LPLANE"> T  </i>
   <i type="logical" name="LCRITICAL_MEM"> F  </i>
   <i type="logical" name="LSCALAPACK"> F  </i>
   <i type="logical" name="LSCALU"> F  </i>
   <i type="logical" name="LASYNC"> F  </i>
  </separator>
  <separator name="miscellaneous" >
   <i type="int" name="IDIOT">     3</i>
   <i type="logical" name="LMUSIC"> F  </i>
   <v name="POMASS">     24.30500000     10.81100000</v>
   <i type="logical" name="LCORR"> T  </i>
  </separator>
  <i type="logical" name="LREAL_COMPAT"> F  </i>
  <i type="logical" name="GGA_COMPAT"> T  </i>
  <i type="logical" name="LBERRY"> F  </i>
  <i type="int" name="ICORELEVEL">     0</i>
  <i type="logical" name="LDAU"> F  </i>
  <i type="int" name="I_CONSTRAINED_M">     0</i>
 </parameters>
 <atominfo>
  <atoms>      54</atoms>
  <types>       2</types>
  <array name="atoms" >
   <dimension dim="1">ion</dimension>
   <field type="string">element</field>
   <field type="int">atomtype</field>
   <set>
    <rc><c>Mg</c><c>   1</c></rc>
    <rc><c>Mg</c><c>   1</c></rc>
    <rc><c>Mg</c><c>   1</c></rc>
    <rc><c>Mg</c><c>   1</c></rc>
    <rc><c>Mg</c><c>   1</c></rc>
    <rc><c>Mg</c><c>   1</c></rc>
    <rc><c>Mg</c><c>   1</c></rc>
    <rc><c>Mg</c><c>   1</c></rc>
    <rc><c>Mg</c><c>   1</c></rc>
    <rc><c>Mg</c><c>   1</c></rc>
    <rc><c>Mg</c><c>   1</c></rc>
    <rc><c>Mg</c><c>   1</c></rc>
    <rc><c>Mg</c><c>   1</c></rc>
    <rc><c>Mg</c><c>   1</c></rc>
    <rc><c>Mg</c><c>   1</c></rc>
    <rc><c>Mg</c><c>   1</c></rc>
    <rc><c>Mg</c><c>   1</c></rc>
    <rc><c>Mg</c><c>   1</c></rc>
    <rc><c>B </c><c>   2</c></rc>
    <rc><c>B </c><c>   2</c></rc>
    <rc><c>B </c><c>   2</c></rc>
    <rc><c>B </c><c>   2</c></rc>
    <rc><c>B </c><c>   2</c></rc>
    <rc><c>B </c><c>   2</c></rc>
    <rc><c>B </c><c>   2</c></rc>
    <rc><c>B </c><c>   2</c></rc>
    <rc><c>B </c><c>   2</c></rc>
    <rc><c>B </c><c>   2</c></rc>
    <rc><c>B </c><c>   2</c></rc>
    <rc><c>B </c><c>   2</c></rc>
    <rc><c>B </c><c>   2</c></rc>
    <rc><c>B </c><c>   2</c></rc>
    <rc><c>B </c><c>   2</c></rc>
    <rc><c>B </c><c>   2</c></rc>
    <rc><c>B </c><c>   2</c></rc>
    <rc><c>B </c><c>   2</c></rc>
    <rc><c>B </c><c>   2</c></rc>
    <rc><c>B </c><c>   2</c></rc>
    <rc><c>B </c><c>   2</c></rc>
    <rc><c>B </c><c>   2</c></rc>
    <rc><c>B </c><c>   2</c></rc>
    <rc><c>B </c><c>   2</c></rc>
    <rc><c>B </c><c>   2</c></rc>
    <rc><c>B </c><c>   2</c></rc>
    <rc><c>B </c><c>   2</c></rc>
    <rc><c>B </c><c>   2</c></rc>
    <rc><c>B </c><c>   2</c></rc>
    <rc><c>B </c><c>   2</c></rc>
    <rc><c>B </c><c>   2</c></rc>
    <rc><c>B </c><c>   2</c></rc>
    <rc><c>B </c><c>   2</c></rc>
    <rc><c>B </c><c>   2</c></rc>
    <rc><c>B </c><c>   2</c></rc>
    <rc><c>B </c><c>   2</c></rc>
   </set>
  </array>
  <array name="atomtypes" >
   <dimension dim="1">type</dimension>
   <field type="int">atomspertype</field>
   <field type="string">element</field>
   <field>mass</field>
   <field>valence</field>
   <field type="string">pseudopotential</field>
   <set>
    <rc><c>  18</c><c>Mg</c><c>     24.30500000</c><c>      8.00000000</c><c> PAW_PBE Mg_pv 06Sep2000                </c></rc>
    <rc><c>  36</c><c>B </c><c>     10.81100000</c><c>      3.00000000</c><c> PAW_PBE B 06Sep2000                    </c></rc>
   </set>
  </array>
 </atominfo>
 <structure name="initialpos" >
  <crystal>
   <varray name="basis" >
    <v>       9.22926428       0.00000000       0.00000000 </v>
    <v>      -4.61463214       7.99277733       0.00000000 </v>
    <v>       0.00000000       0.00000000       7.04667455 </v>
   </varray>
   <i name="volume">    519.81524302</i>
   <varray name="rec_basis" >
    <v>       0.10835100       0.06255648       0.00000000 </v>
    <v>       0.00000000       0.12511296       0.00000000 </v>
    <v>       0.00000000       0.00000000       0.14191091 </v>
   </varray>
  </crystal>
  <varray name="positions" >
   <v>       0.00000000       0.00000000       0.00000000 </v>
   <v>       0.33333333       0.00000000       0.00000000 </v>
   <v>       0.66666667       0.00000000       0.00000000 </v>
   <v>       0.00000000       0.33333333       0.00000000 </v>
   <v>       0.33333333       0.33333333       0.00000000 </v>
   <v>       0.66666667       0.33333333       0.00000000 </v>
   <v>       0.00000000       0.66666667       0.00000000 </v>
   <v>       0.33333333       0.66666667       0.00000000 </v>
   <v>       0.66666667       0.66666667       0.00000000 </v>
   <v>       0.00000000       0.00000000       0.50000000 </v>
   <v>       0.33333333       0.00000000       0.50000000 </v>
   <v>       0.66666667       0.00000000       0.50000000 </v>
   <v>       0.00000000       0.33333333       0.50000000 </v>
   <v>       0.33333333       0.33333333       0.50000000 </v>
   <v>       0.66666667       0.33333333       0.50000000 </v>
   <v>       0.00000000       0.66666667       0.50000000 </v>
   <v>       0.33333333       0.66666667       0.50000000 </v>
   <v>       0.66666667       0.66666667       0.50000000 </v>
   <v>       0.11197230       0.22222222       0.25086119 </v>
   <v>       0.44444444       0.22222222       0.25000000 </v>
   <v>       0.77777778       0.22222222       0.25000000 </v>
   <v>       0.11111111       0.55555556       0.25000000 </v>
   <v>       0.44444444       0.55555556       0.25000000 </v>
   <v>       0.77777778       0.55555556       0.25000000 </v>
   <v>       0.11111111       0.88888889       0.25000000 </v>
   <v>       0.44444444       0.88888889       0.25000000 </v>
   <v>       0.77777778       0.88888889       0.25000000 </v>
   <v>       0.11111111       0.22222222       0.75000000 </v>
   <v>       0.44444444       0.22222222       0.75000000 </v>
   <v>       0.77777778       0.22222222       0.75000000 </v>
   <v>       0.11111111       0.55555556       0.75000000 </v>
   <v>       0.44444444       0.55555556       0.75000000 </v>
   <v>       0.77777778       0.55555556       0.75000000 </v>
   <v>       0.11111111       0.88888889       0.75000000 </v>
   <v>       0.44444444       0.88888889       0.75000000 </v>
   <v>       0.77777778       0.88888889       0.75000000 </v>
   <v>       0.22222222       0.11111111       0.25000000 </v>
   <v>       0.55555556       0.11111111       0.25000000 </v>
   <v>       0.88888889       0.11111111       0.25000000 </v>
   <v>       0.22222222       0.44444444       0.25000000 </v>
   <v>       0.55555556       0.44444444       0.25000000 </v>
   <v>       0.88888889       0.44444444       0.25000000 </v>
   <v>       0.22222222       0.77777778       0.25000000 </v>
   <v>       0.55555556       0.77777778       0.25000000 </v>
   <v>       0.88888889       0.77777778       0.25000000 </v>
   <v>       0.22222222       0.11111111       0.75000000 </v>
   <v>       0.55555556       0.11111111       0.75000000 </v>
   <v>       0.88888889       0.11111111       0.75000000 </v>
   <v>       0.22222222       0.44444444       0.75000000 </v>
   <v>       0.55555556       0.44444444       0.75000000 </v>
   <v>       0.88888889       0.44444444       0.75000000 </v>
   <v>       0.22222222       0.77777778       0.75000000 </v>
   <v>       0.55555556       0.77777778       0.75000000 </v>
   <v>       0.88888889       0.77777778       0.75000000 </v>
  </varray>
 </structure>
 <calculation>
  <scstep>
   <time name="dav">  545.61  547.74</time>
   <time name="total">  547.03  549.17</time>
   <energy>
    <i name="alphaZ">    746.83512423</i>
    <i name="ewald"> -13044.41997423</i>
    <i name="hartreedc">  -4938.23959927</i>
    <i name="XCdc">    921.36261517</i>
    <i name="pawpsdc">  10589.82125549</i>
    <i name="pawaedc"> -12528.22584987</i>
    <i name="eentropy">     -0.31968550</i>
    <i name="bandstr">    396.10524316</i>
    <i name="atom">  21580.70085878</i>
    <i name="e_fr_energy">   3723.61998795</i>
    <i name="e_wo_entrp">   3723.93967345</i>
    <i name="e_0_energy">   3723.77983070</i>
   </energy>
  </scstep>
  <scstep>
   <time name="dav">  530.34  532.39</time>
   <time name="total">  530.40  532.45</time>
   <energy>
    <i name="e_fr_energy">    356.08086389</i>
    <i name="e_wo_entrp">    356.76665670</i>
    <i name="e_0_energy">    356.42376030</i>
   </energy>
  </scstep>
  <scstep>
   <time name="dav">  582.32  584.64</time>
   <time name="total">  582.37  584.70</time>
   <energy>
    <i name="e_fr_energy">   -259.89281807</i>
    <i name="e_wo_entrp">   -258.94251198</i>
    <i name="e_0_energy">   -259.41766503</i>
   </energy>
  </scstep>
  <scstep>
   <time name="dav">  587.64  589.98</time>
   <time name="total">  587.70  590.04</time>
   <energy>
    <i name="e_fr_energy">   -307.22291314</i>
    <i name="e_wo_entrp">   -306.24184204</i>
    <i name="e_0_energy">   -306.73237759</i>
   </energy>
  </scstep>
  <scstep>
   <time name="dav">  587.67  589.97</time>
   <time name="total">  623.51  626.00</time>
   <energy>
    <i name="e_fr_energy">   -308.50995810</i>
    <i name="e_wo_entrp">   -307.52759928</i>
    <i name="e_0_energy">   -308.01877869</i>
   </energy>
  </scstep>
  <scstep>
   <time name="dav">  568.88  571.08</time>
   <time name="total">  606.09  608.48</time>
   <energy>
    <i name="e_fr_energy">   -281.41460357</i>
    <i name="e_wo_entrp">   -279.99143019</i>
    <i name="e_0_energy">   -280.70301688</i>
   </energy>
  </scstep>
  <scstep>
   <time name="dav">  601.60  604.00</time>
   <time name="total">  638.79  641.38</time>
   <energy>
    <i name="e_fr_energy">   -277.03708199</i>
    <i name="e_wo_entrp">   -275.45112832</i>
    <i name="e_0_energy">   -276.24410515</i>
   </energy>
  </scstep>
  <scstep>
   <time name="dav">  562.09  564.35</time>
   <time name="total">  599.31  601.74</time>
   <energy>
    <i name="e_fr_energy">   -277.14462398</i>
    <i name="e_wo_entrp">   -275.58912430</i>
    <i name="e_0_energy">   -276.36687414</i>
   </energy>
  </scstep>
  <scstep>
   <time name="dav">  569.27  571.54</time>
   <time name="total">  606.48  608.94</time>
   <energy>
    <i name="e_fr_energy">   -277.01259284</i>
    <i name="e_wo_entrp">   -275.44117249</i>
    <i name="e_0_energy">   -276.22688267</i>
   </energy>
  </scstep>
  <scstep>
   <time name="dav">  642.16  644.62</time>
   <time name="total">  679.39  682.03</time>
   <energy>
    <i name="e_fr_energy">   -277.01344222</i>
    <i name="e_wo_entrp">   -275.43971859</i>
    <i name="e_0_energy">   -276.22658041</i>
   </energy>
  </scstep>
  <scstep>
   <time name="dav">  575.57  577.87</time>
   <time name="total">  612.80  615.26</time>
   <energy>
    <i name="e_fr_energy">   -277.01312434</i>
    <i name="e_wo_entrp">   -275.44025515</i>
    <i name="e_0_energy">   -276.22668975</i>
   </energy>
  </scstep>
  <scstep>
   <time name="dav">  576.96  579.27</time>
   <time name="total">  614.18  616.67</time>
   <energy>
    <i name="e_fr_energy">   -277.01317739</i>
    <i name="e_wo_entrp">   -275.44016154</i>
    <i name="e_0_energy">   -276.22666946</i>
   </energy>
  </scstep>
  <scstep>
   <time name="dav">  598.84  601.20</time>
   <time name="total">  636.06  638.60</time>
   <energy>
    <i name="e_fr_energy">   -277.01316992</i>
    <i name="e_wo_entrp">   -275.44028674</i>
    <i name="e_0_energy">   -276.22672833</i>
   </energy>
  </scstep>
  <scstep>
   <time name="dav">  589.82  592.07</time>
   <time name="total">  627.05  629.47</time>
   <energy>
    <i name="e_fr_energy">   -277.01317228</i>
    <i name="e_wo_entrp">   -275.44035427</i>
    <i name="e_0_energy">   -276.22676328</i>
   </energy>
  </scstep>
  <scstep>
   <time name="dav">  592.36  594.64</time>
   <time name="total">  629.56  632.04</time>
   <energy>
    <i name="e_fr_energy">   -277.01317143</i>
    <i name="e_wo_entrp">   -275.44034495</i>
    <i name="e_0_energy">   -276.22675819</i>
   </energy>
  </scstep>
  <scstep>
   <time name="dav">  566.39  568.63</time>
   <time name="total">  603.61  606.04</time>
   <energy>
    <i name="e_fr_energy">   -277.01317139</i>
    <i name="e_wo_entrp">   -275.44035793</i>
    <i name="e_0_energy">   -276.22676466</i>
   </energy>
  </scstep>
  <scstep>
   <time name="dav">  502.48  504.44</time>
   <time name="total">  539.74  541.89</time>
   <energy>
    <i name="e_fr_energy">   -277.01317149</i>
    <i name="e_wo_entrp">   -275.44035934</i>
    <i name="e_0_energy">   -276.22676542</i>
   </energy>
  </scstep>
  <scstep>
   <time name="dav">  391.88  393.43</time>
   <time name="total">  429.11  430.85</time>
   <energy>
    <i name="e_fr_energy">   -277.01317146</i>
    <i name="e_wo_entrp">   -275.44035914</i>
    <i name="e_0_energy">   -276.22676530</i>
   </energy>
  </scstep>
  <scstep>
   <time name="dav">  391.05  392.61</time>
   <time name="total">  428.29  430.03</time>
   <energy>
    <i name="e_fr_energy">   -277.01317141</i>
    <i name="e_wo_entrp">   -275.44035816</i>
    <i name="e_0_energy">   -276.22676479</i>
   </energy>
  </scstep>
  <scstep>
   <time name="dav">  387.67  389.61</time>
   <time name="total">  424.87  427.05</time>
   <energy>
    <i name="e_fr_energy">   -277.01317140</i>
    <i name="e_wo_entrp">   -275.44035787</i>
    <i name="e_0_energy">   -276.22676464</i>
   </energy>
  </scstep>
  <scstep>
   <time name="dav">  386.49  388.02</time>
   <time name="total">  387.93  389.47</time>
   <energy>
    <i name="alphaZ">    746.83512423</i>
    <i name="ewald"> -13044.41997423</i>
    <i name="hartreedc">  -4824.32762209</i>
    <i name="XCdc">    931.36247207</i>
    <i name="pawpsdc">  11135.93963104</i>
    <i name="pawaedc"> -13086.04510624</i>
    <i name="eentropy">     -1.57281345</i>
    <i name="bandstr">  -3715.48574150</i>
    <i name="atom">  21580.70085878</i>
    <i name="e_fr_energy">   -277.01317141</i>
    <i name="e_wo_entrp">   -275.44035796</i>
    <i name="e_0_energy">   -276.22676468</i>
   </energy>
  </scstep>
  <structure>
   <crystal>
    <varray name="basis" >
     <v>       9.22926428       0.00000000       0.00000000 </v>
     <v>      -4.61463214       7.99277733       0.00000000 </v>
     <v>       0.00000000       0.00000000       7.04667455 </v>
    </varray>
    <i name="volume">    519.81524302</i>
    <varray name="rec_basis" >
     <v>       0.10835100       0.06255648       0.00000000 </v>
     <v>       0.00000000       0.12511296       0.00000000 </v>
     <v>       0.00000000       0.00000000       0.14191091 </v>
    </varray>
   </crystal>
   <varray name="positions" >
    <v>       0.00000000       0.00000000       0.00000000 </v>
    <v>       0.33333333       0.00000000       0.00000000 </v>
    <v>       0.66666667       0.00000000       0.00000000 </v>
    <v>       0.00000000       0.33333333       0.00000000 </v>
    <v>       0.33333333       0.33333333       0.00000000 </v>
    <v>       0.66666667       0.33333333       0.00000000 </v>
    <v>       0.00000000       0.66666667       0.00000000 </v>
    <v>       0.33333333       0.66666667       0.00000000 </v>
    <v>       0.66666667       0.66666667       0.00000000 </v>
    <v>       0.00000000       0.00000000       0.50000000 </v>
    <v>       0.33333333       0.00000000       0.50000000 </v>
    <v>       0.66666667       0.00000000       0.50000000 </v>
    <v>       0.00000000       0.33333333       0.50000000 </v>
    <v>       0.33333333       0.33333333       0.50000000 </v>
    <v>       0.66666667       0.33333333       0.50000000 </v>
    <v>       0.00000000       0.66666667       0.50000000 </v>
    <v>       0.33333333       0.66666667       0.50000000 </v>
    <v>       0.66666667       0.66666667       0.50000000 </v>
    <v>       0.11197230       0.22222222       0.25086119 </v>
    <v>       0.44444444       0.22222222       0.25000000 </v>
    <v>       0.77777778       0.22222222       0.25000000 </v>
    <v>       0.11111111       0.55555556       0.25000000 </v>
    <v>       0.44444444       0.55555556       0.25000000 </v>
    <v>       0.77777778       0.55555556       0.25000000 </v>
    <v>       0.11111111       0.88888889       0.25000000 </v>
    <v>       0.44444444       0.88888889       0.25000000 </v>
    <v>       0.77777778       0.88888889       0.25000000 </v>
    <v>       0.11111111       0.22222222       0.75000000 </v>
    <v>       0.44444444       0.22222222       0.75000000 </v>
    <v>       0.77777778       0.22222222       0.75000000 </v>
    <v>       0.11111111       0.55555556       0.75000000 </v>
    <v>       0.44444444       0.55555556       0.75000000 </v>
    <v>       0.77777778       0.55555556       0.75000000 </v>
    <v>       0.11111111       0.88888889       0.75000000 </v>
    <v>       0.44444444       0.88888889       0.75000000 </v>
    <v>       0.77777778       0.88888889       0.75000000 </v>
    <v>       0.22222222       0.11111111       0.25000000 </v>
    <v>       0.55555556       0.11111111       0.25000000 </v>
    <v>       0.88888889       0.11111111       0.25000000 </v>
    <v>       0.22222222       0.44444444       0.25000000 </v>
    <v>       0.55555556       0.44444444       0.25000000 </v>
    <v>       0.88888889       0.44444444       0.25000000 </v>
    <v>       0.22222222       0.77777778       0.25000000 </v>
    <v>       0.55555556       0.77777778       0.25000000 </v>
    <v>       0.88888889       0.77777778       0.25000000 </v>
    <v>       0.22222222       0.11111111       0.75000000 </v>
    <v>       0.55555556       0.11111111       0.75000000 </v>
    <v>       0.88888889       0.11111111       0.75000000 </v>
    <v>       0.22222222       0.44444444       0.75000000 </v>
    <v>       0.55555556       0.44444444       0.75000000 </v>
    <v>       0.88888889       0.44444444       0.75000000 </v>
    <v>       0.22222222       0.77777778       0.75000000 </v>
    <v>       0.55555556       0.77777778       0.75000000 </v>
    <v>       0.88888889       0.77777778       0.75000000 </v>
   </varray>
  </structure>
  <varray name="forces" >
   <v>      -0.00057241       0.00271776       0.00316371 </v>
   <v>       0.00020302      -0.00010103       0.00005443 </v>
   <v>       0.00125159       0.00075009       0.00005102 </v>
   <v>       0.00646838      -0.00404150       0.00804814 </v>
   <v>       0.00192661       0.00148278      -0.00190592 </v>
   <v>      -0.00039057      -0.00018700       0.00015138 </v>
   <v>       0.00025643       0.00032741       0.00050670 </v>
   <v>       0.00000339      -0.00065845       0.00005210 </v>
   <v>      -0.00012261      -0.00021719      -0.00020654 </v>
   <v>      -0.00060406      -0.00281427       0.00323266 </v>
   <v>       0.00135647      -0.00077126       0.00008680 </v>
   <v>       0.00010307       0.00009126       0.00007788 </v>
   <v>       0.00191661      -0.00143121      -0.00191131 </v>
   <v>       0.00696007       0.00440776       0.00856901 </v>
   <v>      -0.00039529       0.00019860       0.00016115 </v>
   <v>      -0.00007916       0.00013643      -0.00019146 </v>
   <v>      -0.00000418       0.00067074       0.00008297 </v>
   <v>       0.00021009      -0.00041196       0.00051644 </v>
   <v>      -0.12912485       0.00113207      -0.06033248 </v>
   <v>       0.01711843      -0.00011601      -0.00151507 </v>
   <v>       0.01703639       0.00028131      -0.00145772 </v>
   <v>       0.00695961      -0.00607469      -0.00145408 </v>
   <v>       0.00703534       0.00596129      -0.00151815 </v>
   <v>       0.00292967       0.00000710       0.00153961 </v>
   <v>       0.00693726      -0.00564834      -0.00148297 </v>
   <v>       0.00292973      -0.00000520       0.00153988 </v>
   <v>       0.00705894       0.00559361      -0.00148968 </v>
   <v>       0.00049438      -0.00000716       0.00240071 </v>
   <v>      -0.00071531      -0.00043344      -0.00060060 </v>
   <v>      -0.00068452       0.00041149      -0.00059298 </v>
   <v>      -0.00023338      -0.00015267      -0.00059405 </v>
   <v>      -0.00024237       0.00015872      -0.00059953 </v>
   <v>      -0.00129626       0.00001196       0.00029390 </v>
   <v>      -0.00024201       0.00069791      -0.00059791 </v>
   <v>      -0.00129644       0.00000051       0.00029378 </v>
   <v>      -0.00023371      -0.00068052      -0.00059580 </v>
   <v>       0.02757835      -0.00894415       0.01443103 </v>
   <v>      -0.00248820      -0.00007101      -0.00237465 </v>
   <v>       0.02588311       0.00780627       0.01455639 </v>
   <v>       0.01223118      -0.00017053       0.01449796 </v>
   <v>      -0.00437498      -0.00106105       0.00057313 </v>
   <v>      -0.00438384       0.00104460       0.00055709 </v>
   <v>      -0.00410235      -0.00091563      -0.00237715 </v>
   <v>      -0.00419981       0.00100472      -0.00237258 </v>
   <v>      -0.00255590       0.00002482       0.00056520 </v>
   <v>       0.00000661      -0.00011051       0.00270078 </v>
   <v>       0.00069090      -0.00000097      -0.00015965 </v>
   <v>      -0.00000502       0.00009521       0.00266566 </v>
   <v>      -0.00017747      -0.00000025       0.00268305 </v>
   <v>       0.00071923       0.00076020       0.00020059 </v>
   <v>       0.00071525      -0.00075777       0.00019747 </v>
   <v>       0.00106321       0.00022299      -0.00015866 </v>
   <v>       0.00107877      -0.00021595      -0.00016071 </v>
   <v>      -0.00059739       0.00000210       0.00019904 </v>
  </varray>
  <varray name="stress" >
   <v>       0.76570139      -0.07473265      -0.00015329 </v>
   <v>      -0.07498498       0.75911063      -0.00002771 </v>
   <v>      -0.00012248       0.00002833       1.93582197 </v>
  </varray>
  <energy>
   <i name="e_fr_energy">   -277.01317141</i>
   <i name="e_wo_entrp">   -276.22676468</i>
   <i name="e_0_energy">     -1.57281345</i>
  </energy>
  <eigenvalues>
   <array>
    <dimension dim="1">band</dimension>
    <dimension dim="2">kpoint</dimension>
    <dimension dim="3">spin</dimension>
    <field>eigene</field>
    <field>occ</field>
    <set>
     <set comment="spin 1">
      <set comment="kpoint 1">
       <r> -35.8883  1.0000</r>
       <r> -35.8880  1.0000</r>
       <r> -35.8875  1.0000</r>
       <r> -35.8874  1.0000</r>
       <r> -35.8873  1.0000</r>
       <r> -35.8872  1.0000</r>
       <r> -35.8866  1.0000</r>
       <r> -35.8865  1.0000</r>
       <r> -35.8864  1.0000</r>
       <r> -35.8864  1.0000</r>
       <r> -35.8861  1.0000</r>
       <r> -35.8860  1.0000</r>
       <r> -35.8855  1.0000</r>
       <r> -35.8854  1.0000</r>
       <r> -35.8852  1.0000</r>
       <r> -35.8850  1.0000</r>
       <r> -35.8843  1.0000</r>
       <r> -35.8843  1.0000</r>
       <r> -35.8838  1.0000</r>
       <r> -35.8836  1.0000</r>
       <r> -35.8650  1.0000</r>
       <r> -35.8649  1.0000</r>
       <r> -35.8644  1.0000</r>
       <r> -35.8643  1.0000</r>
       <r> -35.8642  1.0000</r>
       <r> -35.8642  1.0000</r>
       <r> -35.8636  1.0000</r>
       <r> -35.8636  1.0000</r>
       <r> -35.8635  1.0000</r>
       <r> -35.8634  1.0000</r>
       <r> -35.8628  1.0000</r>
       <r> -35.8627  1.0000</r>
       <r> -35.8571  1.0000</r>
       <r> -35.8571  1.0000</r>
       <r> -35.8560  1.0000</r>
       <r> -35.8559  1.0000</r>
       <r> -35.8490  1.0000</r>
       <r> -35.8448  1.0000</r>
       <r> -35.8441  1.0000</r>
       <r> -35.8440  1.0000</r>
       <r> -35.8439  1.0000</r>
       <r> -35.8438  1.0000</r>
       <r> -35.8434  1.0000</r>
       <r> -35.8416  1.0000</r>
       <r> -35.8414  1.0000</r>
       <r> -35.8412  1.0000</r>
       <r> -35.8375  1.0000</r>
       <r> -35.8370  1.0000</r>
       <r> -35.8369  1.0000</r>
       <r> -35.8369  1.0000</r>
       <r> -35.8368  1.0000</r>
       <r> -35.8362  1.0000</r>
       <r> -35.8348  1.0000</r>
       <r> -35.8343  1.0000</r>
       <r>  -6.4325  1.0000</r>
       <r>  -5.1444  1.0000</r>
       <r>  -4.5197  1.0000</r>
       <r>  -4.5170  1.0000</r>
       <r>  -4.5168  1.0000</r>
       <r>  -4.5168  1.0000</r>
       <r>  -4.5165  1.0000</r>
       <r>  -4.5139  1.0000</r>
       <r>  -3.4123  1.0000</r>
       <r>  -3.4093  1.0000</r>
       <r>  -3.4090  1.0000</r>
       <r>  -3.4090  1.0000</r>
       <r>  -3.4087  1.0000</r>
       <r>  -3.4057  1.0000</r>
       <r>  -1.4294  1.0000</r>
       <r>  -1.2477  1.0000</r>
       <r>  -1.2457  1.0000</r>
       <r>  -1.2454  1.0000</r>
       <r>  -1.2434  1.0000</r>
       <r>  -0.3686  1.0000</r>
       <r>  -0.3664  1.0000</r>
       <r>  -0.3660  1.0000</r>
       <r>  -0.3638  1.0000</r>
       <r>   0.1499  1.0000</r>
       <r>   0.1513  1.0000</r>
       <r>   0.7118  1.0000</r>
       <r>   0.7139  1.0000</r>
       <r>   0.7139  1.0000</r>
       <r>   0.7140  1.0000</r>
       <r>   0.7140  1.0000</r>
       <r>   0.7160  1.0000</r>
       <r>   0.8255  1.0000</r>
       <r>   0.8269  1.0000</r>
       <r>   0.9197  1.0000</r>
       <r>   0.9216  1.0000</r>
       <r>   0.9228  1.0000</r>
       <r>   0.9228  1.0000</r>
       <r>   0.9240  1.0000</r>
       <r>   0.9258  1.0000</r>
       <r>   1.6617  1.0000</r>
       <r>   1.6637  1.0000</r>
       <r>   1.6651  1.0000</r>
       <r>   1.6651  1.0000</r>
       <r>   1.6665  1.0000</r>
       <r>   1.6685  1.0000</r>
       <r>   3.0483  1.0000</r>
       <r>   4.0175  1.0000</r>
       <r>   4.0193  1.0000</r>
       <r>   4.0194  1.0000</r>
       <r>   4.0212  1.0000</r>
       <r>   4.2879  0.9998</r>
       <r>   4.2912  0.9998</r>
       <r>   4.2918  0.9998</r>
       <r>   4.2918  0.9998</r>
       <r>   4.2924  0.9998</r>
       <r>   4.2957  0.9998</r>
       <r>   4.5845  0.9992</r>
       <r>   4.5879  0.9992</r>
       <r>   4.5885  0.9992</r>
       <r>   4.5885  0.9992</r>
       <r>   4.5892  0.9992</r>
       <r>   4.5927  0.9992</r>
       <r>   4.8558  0.9970</r>
       <r>   4.8589  0.9969</r>
       <r>   4.8590  0.9969</r>
       <r>   4.8590  0.9969</r>
       <r>   4.8591  0.9969</r>
       <r>   4.8622  0.9969</r>
       <r>   6.3867  0.1355</r>
       <r>   6.3923  0.1323</r>
       <r>   6.7571  0.0240</r>
       <r>   6.7629  0.0233</r>
       <r>   7.3159  0.0015</r>
       <r>   7.3192  0.0015</r>
       <r>   7.3194  0.0015</r>
       <r>   7.3194  0.0015</r>
       <r>   7.3195  0.0015</r>
       <r>   7.3228  0.0015</r>
       <r>   7.6471  0.0003</r>
       <r>   7.7972  0.0001</r>
       <r>   7.8001  0.0001</r>
       <r>   7.8002  0.0001</r>
       <r>   7.8032  0.0001</r>
       <r>   9.2696  0.0000</r>
       <r>   9.2713  0.0000</r>
       <r>   9.2718  0.0000</r>
       <r>   9.2718  0.0000</r>
       <r>   9.2724  0.0000</r>
       <r>   9.2740  0.0000</r>
       <r>   9.6251  0.0000</r>
       <r>   9.6257  0.0000</r>
       <r>  11.0565  0.0000</r>
       <r>  11.0586  0.0000</r>
       <r>  11.0588  0.0000</r>
       <r>  11.0589  0.0000</r>
       <r>  11.0590  0.0000</r>
       <r>  11.0611  0.0000</r>
       <r>  11.2127  0.0000</r>
       <r>  11.2178  0.0000</r>
       <r>  11.2180  0.0000</r>
       <r>  11.2180  0.0000</r>
       <r>  11.2182  0.0000</r>
       <r>  11.2236  0.0000</r>
       <r>  12.0048  0.0000</r>
       <r>  12.0098  0.0000</r>
       <r>  12.0101  0.0000</r>
      </set>
      <set comment="kpoint 2">
       <r> -35.8929  1.0000</r>
       <r> -35.8916  1.0000</r>
       <r> -35.8904  1.0000</r>
       <r> -35.8902  1.0000</r>
       <r> -35.8892  1.0000</r>
       <r> -35.8891  1.0000</r>
       <r> -35.8888  1.0000</r>
       <r> -35.8888  1.0000</r>
       <r> -35.8877  1.0000</r>
       <r> -35.8876  1.0000</r>
       <r> -35.8845  1.0000</r>
       <r> -35.8842  1.0000</r>
       <r> -35.8833  1.0000</r>
       <r> -35.8830  1.0000</r>
       <r> -35.8812  1.0000</r>
       <r> -35.8811  1.0000</r>
       <r> -35.8808  1.0000</r>
       <r> -35.8800  1.0000</r>
       <r> -35.8798  1.0000</r>
       <r> -35.8794  1.0000</r>
       <r> -35.8661  1.0000</r>
       <r> -35.8659  1.0000</r>
       <r> -35.8657  1.0000</r>
       <r> -35.8650  1.0000</r>
       <r> -35.8647  1.0000</r>
       <r> -35.8645  1.0000</r>
       <r> -35.8643  1.0000</r>
       <r> -35.8641  1.0000</r>
       <r> -35.8633  1.0000</r>
       <r> -35.8629  1.0000</r>
       <r> -35.8628  1.0000</r>
       <r> -35.8617  1.0000</r>
       <r> -35.8583  1.0000</r>
       <r> -35.8574  1.0000</r>
       <r> -35.8571  1.0000</r>
       <r> -35.8563  1.0000</r>
       <r> -35.8488  1.0000</r>
       <r> -35.8452  1.0000</r>
       <r> -35.8447  1.0000</r>
       <r> -35.8443  1.0000</r>
       <r> -35.8436  1.0000</r>
       <r> -35.8432  1.0000</r>
       <r> -35.8430  1.0000</r>
       <r> -35.8417  1.0000</r>
       <r> -35.8413  1.0000</r>
       <r> -35.8412  1.0000</r>
       <r> -35.8380  1.0000</r>
       <r> -35.8375  1.0000</r>
       <r> -35.8372  1.0000</r>
       <r> -35.8366  1.0000</r>
       <r> -35.8363  1.0000</r>
       <r> -35.8359  1.0000</r>
       <r> -35.8349  1.0000</r>
       <r> -35.8344  1.0000</r>
       <r>  -6.3783  1.0000</r>
       <r>  -5.0961  1.0000</r>
       <r>  -5.0938  1.0000</r>
       <r>  -4.7789  1.0000</r>
       <r>  -4.7777  1.0000</r>
       <r>  -4.1545  1.0000</r>
       <r>  -4.1533  1.0000</r>
       <r>  -3.9359  1.0000</r>
       <r>  -3.8461  1.0000</r>
       <r>  -3.6488  1.0000</r>
       <r>  -3.6475  1.0000</r>
       <r>  -3.0770  1.0000</r>
       <r>  -3.0756  1.0000</r>
       <r>  -2.7932  1.0000</r>
       <r>  -1.8443  1.0000</r>
       <r>  -1.8429  1.0000</r>
       <r>  -1.3673  1.0000</r>
       <r>  -0.9326  1.0000</r>
       <r>  -0.9310  1.0000</r>
       <r>  -0.9013  1.0000</r>
       <r>  -0.9000  1.0000</r>
       <r>  -0.1594  1.0000</r>
       <r>  -0.0496  1.0000</r>
       <r>  -0.0481  1.0000</r>
       <r>   0.0823  1.0000</r>
       <r>   0.4001  1.0000</r>
       <r>   0.4012  1.0000</r>
       <r>   0.4305  1.0000</r>
       <r>   0.4314  1.0000</r>
       <r>   0.5259  1.0000</r>
       <r>   0.5273  1.0000</r>
       <r>   0.6464  1.0000</r>
       <r>   1.1013  1.0000</r>
       <r>   1.1022  1.0000</r>
       <r>   1.1715  1.0000</r>
       <r>   1.1728  1.0000</r>
       <r>   1.1870  1.0000</r>
       <r>   1.1884  1.0000</r>
       <r>   1.4155  1.0000</r>
       <r>   1.5045  1.0000</r>
       <r>   1.5059  1.0000</r>
       <r>   2.0591  1.0000</r>
       <r>   2.2120  1.0000</r>
       <r>   2.2136  1.0000</r>
       <r>   2.7362  1.0000</r>
       <r>   3.1008  1.0000</r>
       <r>   3.3996  1.0000</r>
       <r>   3.4005  1.0000</r>
       <r>   3.9062  1.0000</r>
       <r>   3.9081  1.0000</r>
       <r>   4.0448  0.9999</r>
       <r>   4.2024  0.9999</r>
       <r>   4.2043  0.9999</r>
       <r>   4.2444  0.9999</r>
       <r>   4.2465  0.9999</r>
       <r>   4.3281  0.9998</r>
       <r>   4.3345  0.9998</r>
       <r>   4.5457  0.9994</r>
       <r>   4.5480  0.9994</r>
       <r>   4.5889  0.9992</r>
       <r>   4.5900  0.9992</r>
       <r>   4.6226  0.9991</r>
       <r>   4.6239  0.9991</r>
       <r>   4.6248  0.9990</r>
       <r>   4.9302  0.9956</r>
       <r>   5.1829  0.9847</r>
       <r>   5.1843  0.9846</r>
       <r>   5.4338  0.9484</r>
       <r>   6.1073  0.3879</r>
       <r>   6.1558  0.3322</r>
       <r>   6.2537  0.2336</r>
       <r>   6.5045  0.0800</r>
       <r>   6.6179  0.0470</r>
       <r>   6.7147  0.0295</r>
       <r>   6.7161  0.0293</r>
       <r>   7.1962  0.0027</r>
       <r>   7.1976  0.0027</r>
       <r>   7.6946  0.0002</r>
       <r>   7.9178  0.0001</r>
       <r>   7.9194  0.0001</r>
       <r>   8.4009  0.0000</r>
       <r>   8.4025  0.0000</r>
       <r>   8.5866  0.0000</r>
       <r>   8.8334  0.0000</r>
       <r>   9.1412  0.0000</r>
       <r>   9.1419  0.0000</r>
       <r>   9.6078  0.0000</r>
       <r>   9.6091  0.0000</r>
       <r>   9.6557  0.0000</r>
       <r>   9.8429  0.0000</r>
       <r>   9.8436  0.0000</r>
       <r>  10.2174  0.0000</r>
       <r>  10.6715  0.0000</r>
       <r>  10.6738  0.0000</r>
       <r>  11.0180  0.0000</r>
       <r>  11.2119  0.0000</r>
       <r>  11.2129  0.0000</r>
       <r>  11.2635  0.0000</r>
       <r>  11.3901  0.0000</r>
       <r>  11.3923  0.0000</r>
       <r>  11.7135  0.0000</r>
       <r>  11.7161  0.0000</r>
       <r>  11.8098  0.0000</r>
       <r>  11.8105  0.0000</r>
       <r>  11.8760  0.0000</r>
       <r>  12.1922  0.0000</r>
      </set>
      <set comment="kpoint 3">
       <r> -35.8964  1.0000</r>
       <r> -35.8951  1.0000</r>
       <r> -35.8922  1.0000</r>
       <r> -35.8920  1.0000</r>
       <r> -35.8914  1.0000</r>
       <r> -35.8914  1.0000</r>
       <r> -35.8908  1.0000</r>
       <r> -35.8907  1.0000</r>
       <r> -35.8900  1.0000</r>
       <r> -35.8899  1.0000</r>
       <r> -35.8819  1.0000</r>
       <r> -35.8815  1.0000</r>
       <r> -35.8806  1.0000</r>
       <r> -35.8803  1.0000</r>
       <r> -35.8766  1.0000</r>
       <r> -35.8765  1.0000</r>
       <r> -35.8753  1.0000</r>
       <r> -35.8753  1.0000</r>
       <r> -35.8739  1.0000</r>
       <r> -35.8727  1.0000</r>
       <r> -35.8686  1.0000</r>
       <r> -35.8684  1.0000</r>
       <r> -35.8674  1.0000</r>
       <r> -35.8672  1.0000</r>
       <r> -35.8667  1.0000</r>
       <r> -35.8654  1.0000</r>
       <r> -35.8649  1.0000</r>
       <r> -35.8646  1.0000</r>
       <r> -35.8638  1.0000</r>
       <r> -35.8634  1.0000</r>
       <r> -35.8618  1.0000</r>
       <r> -35.8612  1.0000</r>
       <r> -35.8606  1.0000</r>
       <r> -35.8600  1.0000</r>
       <r> -35.8582  1.0000</r>
       <r> -35.8571  1.0000</r>
       <r> -35.8482  1.0000</r>
       <r> -35.8463  1.0000</r>
       <r> -35.8450  1.0000</r>
       <r> -35.8446  1.0000</r>
       <r> -35.8431  1.0000</r>
       <r> -35.8427  1.0000</r>
       <r> -35.8425  1.0000</r>
       <r> -35.8420  1.0000</r>
       <r> -35.8416  1.0000</r>
       <r> -35.8406  1.0000</r>
       <r> -35.8389  1.0000</r>
       <r> -35.8378  1.0000</r>
       <r> -35.8374  1.0000</r>
       <r> -35.8361  1.0000</r>
       <r> -35.8358  1.0000</r>
       <r> -35.8355  1.0000</r>
       <r> -35.8351  1.0000</r>
       <r> -35.8346  1.0000</r>
       <r>  -6.2160  1.0000</r>
       <r>  -5.5719  1.0000</r>
       <r>  -4.9504  1.0000</r>
       <r>  -4.9366  1.0000</r>
       <r>  -4.9354  1.0000</r>
       <r>  -4.3696  1.0000</r>
       <r>  -3.7928  1.0000</r>
       <r>  -3.7914  1.0000</r>
       <r>  -3.6941  1.0000</r>
       <r>  -3.6928  1.0000</r>
       <r>  -3.1004  1.0000</r>
       <r>  -2.6534  1.0000</r>
       <r>  -2.6520  1.0000</r>
       <r>  -2.5146  1.0000</r>
       <r>  -2.5133  1.0000</r>
       <r>  -2.1046  1.0000</r>
       <r>  -1.5604  1.0000</r>
       <r>  -1.5589  1.0000</r>
       <r>  -1.1818  1.0000</r>
       <r>  -1.1569  1.0000</r>
       <r>  -0.6732  1.0000</r>
       <r>  -0.6721  1.0000</r>
       <r>  -0.4515  1.0000</r>
       <r>  -0.2898  1.0000</r>
       <r>  -0.0426  1.0000</r>
       <r>  -0.0415  1.0000</r>
       <r>   0.1589  1.0000</r>
       <r>   0.1601  1.0000</r>
       <r>   0.2583  1.0000</r>
       <r>   0.2592  1.0000</r>
       <r>   0.7530  1.0000</r>
       <r>   0.7542  1.0000</r>
       <r>   1.3282  1.0000</r>
       <r>   1.3296  1.0000</r>
       <r>   1.5837  1.0000</r>
       <r>   1.5846  1.0000</r>
       <r>   1.9369  1.0000</r>
       <r>   1.9384  1.0000</r>
       <r>   2.0961  1.0000</r>
       <r>   2.0975  1.0000</r>
       <r>   2.1037  1.0000</r>
       <r>   2.7614  1.0000</r>
       <r>   2.7623  1.0000</r>
       <r>   2.7677  1.0000</r>
       <r>   2.7694  1.0000</r>
       <r>   3.1593  1.0000</r>
       <r>   3.1609  1.0000</r>
       <r>   3.2164  1.0000</r>
       <r>   3.2576  1.0000</r>
       <r>   3.5921  1.0000</r>
       <r>   3.5939  1.0000</r>
       <r>   3.7951  1.0000</r>
       <r>   3.7967  1.0000</r>
       <r>   3.8250  1.0000</r>
       <r>   3.8762  1.0000</r>
       <r>   3.8944  1.0000</r>
       <r>   4.1798  0.9999</r>
       <r>   4.2186  0.9999</r>
       <r>   4.2205  0.9999</r>
       <r>   4.4804  0.9995</r>
       <r>   4.4819  0.9995</r>
       <r>   5.0277  0.9929</r>
       <r>   5.1116  0.9893</r>
       <r>   5.1127  0.9892</r>
       <r>   5.1872  0.9844</r>
       <r>   5.3466  0.9660</r>
       <r>   5.3590  0.9639</r>
       <r>   5.5904  0.8936</r>
       <r>   5.5918  0.8930</r>
       <r>   5.8202  0.7270</r>
       <r>   5.9123  0.6269</r>
       <r>   5.9610  0.5685</r>
       <r>   6.1467  0.3423</r>
       <r>   6.1480  0.3408</r>
       <r>   6.2622  0.2261</r>
       <r>   6.6129  0.0482</r>
       <r>   6.6143  0.0478</r>
       <r>   7.8425  0.0001</r>
       <r>   8.4109  0.0000</r>
       <r>   8.4127  0.0000</r>
       <r>   8.4267  0.0000</r>
       <r>   8.9867  0.0000</r>
       <r>   8.9886  0.0000</r>
       <r>   9.0892  0.0000</r>
       <r>   9.0899  0.0000</r>
       <r>   9.4240  0.0000</r>
       <r>   9.8705  0.0000</r>
       <r>   9.9109  0.0000</r>
       <r>  10.1151  0.0000</r>
       <r>  10.1174  0.0000</r>
       <r>  10.1397  0.0000</r>
       <r>  10.1406  0.0000</r>
       <r>  10.4626  0.0000</r>
       <r>  10.4635  0.0000</r>
       <r>  11.1867  0.0000</r>
       <r>  11.3071  0.0000</r>
       <r>  11.3078  0.0000</r>
       <r>  11.5605  0.0000</r>
       <r>  11.6918  0.0000</r>
       <r>  11.6929  0.0000</r>
       <r>  11.7932  0.0000</r>
       <r>  12.0873  0.0000</r>
       <r>  12.0899  0.0000</r>
       <r>  12.1798  0.0000</r>
       <r>  12.2081  0.0000</r>
       <r>  12.2170  0.0000</r>
      </set>
      <set comment="kpoint 4">
       <r> -35.8976  1.0000</r>
       <r> -35.8963  1.0000</r>
       <r> -35.8928  1.0000</r>
       <r> -35.8925  1.0000</r>
       <r> -35.8923  1.0000</r>
       <r> -35.8922  1.0000</r>
       <r> -35.8914  1.0000</r>
       <r> -35.8913  1.0000</r>
       <r> -35.8909  1.0000</r>
       <r> -35.8908  1.0000</r>
       <r> -35.8808  1.0000</r>
       <r> -35.8803  1.0000</r>
       <r> -35.8795  1.0000</r>
       <r> -35.8791  1.0000</r>
       <r> -35.8725  1.0000</r>
       <r> -35.8722  1.0000</r>
       <r> -35.8720  1.0000</r>
       <r> -35.8720  1.0000</r>
       <r> -35.8713  1.0000</r>
       <r> -35.8711  1.0000</r>
       <r> -35.8708  1.0000</r>
       <r> -35.8706  1.0000</r>
       <r> -35.8676  1.0000</r>
       <r> -35.8670  1.0000</r>
       <r> -35.8669  1.0000</r>
       <r> -35.8663  1.0000</r>
       <r> -35.8660  1.0000</r>
       <r> -35.8657  1.0000</r>
       <r> -35.8653  1.0000</r>
       <r> -35.8649  1.0000</r>
       <r> -35.8642  1.0000</r>
       <r> -35.8635  1.0000</r>
       <r> -35.8599  1.0000</r>
       <r> -35.8592  1.0000</r>
       <r> -35.8586  1.0000</r>
       <r> -35.8582  1.0000</r>
       <r> -35.8475  1.0000</r>
       <r> -35.8471  1.0000</r>
       <r> -35.8451  1.0000</r>
       <r> -35.8447  1.0000</r>
       <r> -35.8428  1.0000</r>
       <r> -35.8424  1.0000</r>
       <r> -35.8423  1.0000</r>
       <r> -35.8422  1.0000</r>
       <r> -35.8419  1.0000</r>
       <r> -35.8400  1.0000</r>
       <r> -35.8397  1.0000</r>
       <r> -35.8379  1.0000</r>
       <r> -35.8375  1.0000</r>
       <r> -35.8357  1.0000</r>
       <r> -35.8356  1.0000</r>
       <r> -35.8355  1.0000</r>
       <r> -35.8353  1.0000</r>
       <r> -35.8347  1.0000</r>
       <r>  -5.9473  1.0000</r>
       <r>  -5.9460  1.0000</r>
       <r>  -4.9894  1.0000</r>
       <r>  -4.9882  1.0000</r>
       <r>  -4.7088  1.0000</r>
       <r>  -4.7073  1.0000</r>
       <r>  -3.8409  1.0000</r>
       <r>  -3.8395  1.0000</r>
       <r>  -3.1444  1.0000</r>
       <r>  -3.1425  1.0000</r>
       <r>  -3.1422  1.0000</r>
       <r>  -3.1401  1.0000</r>
       <r>  -2.5145  1.0000</r>
       <r>  -2.1458  1.0000</r>
       <r>  -2.1437  1.0000</r>
       <r>  -2.1432  1.0000</r>
       <r>  -2.1409  1.0000</r>
       <r>  -1.8275  1.0000</r>
       <r>  -1.5628  1.0000</r>
       <r>  -0.9150  1.0000</r>
       <r>  -0.8756  1.0000</r>
       <r>  -0.8747  1.0000</r>
       <r>  -0.4003  1.0000</r>
       <r>  -0.3989  1.0000</r>
       <r>  -0.3980  1.0000</r>
       <r>  -0.3972  1.0000</r>
       <r>   0.2005  1.0000</r>
       <r>   0.2015  1.0000</r>
       <r>   0.4147  1.0000</r>
       <r>   0.4163  1.0000</r>
       <r>   0.4172  1.0000</r>
       <r>   0.4182  1.0000</r>
       <r>   2.1438  1.0000</r>
       <r>   2.1453  1.0000</r>
       <r>   2.1453  1.0000</r>
       <r>   2.1471  1.0000</r>
       <r>   2.2508  1.0000</r>
       <r>   2.2512  1.0000</r>
       <r>   2.2526  1.0000</r>
       <r>   2.2535  1.0000</r>
       <r>   2.4449  1.0000</r>
       <r>   2.4466  1.0000</r>
       <r>   2.4641  1.0000</r>
       <r>   2.7801  1.0000</r>
       <r>   2.7807  1.0000</r>
       <r>   2.7820  1.0000</r>
       <r>   2.7831  1.0000</r>
       <r>   3.1017  1.0000</r>
       <r>   3.1035  1.0000</r>
       <r>   3.4870  1.0000</r>
       <r>   3.4880  1.0000</r>
       <r>   3.5165  1.0000</r>
       <r>   3.5179  1.0000</r>
       <r>   3.8438  1.0000</r>
       <r>   3.9451  1.0000</r>
       <r>   3.9466  1.0000</r>
       <r>   4.1278  0.9999</r>
       <r>   4.3435  0.9998</r>
       <r>   4.3471  0.9998</r>
       <r>   4.4327  0.9996</r>
       <r>   4.4341  0.9996</r>
       <r>   4.7327  0.9984</r>
       <r>   4.8794  0.9966</r>
       <r>   4.8834  0.9965</r>
       <r>   5.4723  0.9381</r>
       <r>   5.4766  0.9369</r>
       <r>   5.6174  0.8801</r>
       <r>   5.6196  0.8790</r>
       <r>   5.6197  0.8789</r>
       <r>   5.6212  0.8781</r>
       <r>   5.8061  0.7407</r>
       <r>   5.8105  0.7365</r>
       <r>   6.0698  0.4332</r>
       <r>   6.0720  0.4305</r>
       <r>   6.0721  0.4305</r>
       <r>   6.0749  0.4270</r>
       <r>   6.2060  0.2790</r>
       <r>   8.0895  0.0000</r>
       <r>   8.0902  0.0000</r>
       <r>   8.6156  0.0000</r>
       <r>   8.6174  0.0000</r>
       <r>   9.0705  0.0000</r>
       <r>   9.0711  0.0000</r>
       <r>   9.0889  0.0000</r>
       <r>   9.5533  0.0000</r>
       <r>   9.5569  0.0000</r>
       <r>   9.5571  0.0000</r>
       <r>   9.5596  0.0000</r>
       <r>   9.9245  0.0000</r>
       <r>  10.7326  0.0000</r>
       <r>  10.7339  0.0000</r>
       <r>  10.7344  0.0000</r>
       <r>  10.7350  0.0000</r>
       <r>  11.2463  0.0000</r>
       <r>  11.2490  0.0000</r>
       <r>  11.3362  0.0000</r>
       <r>  11.4064  0.0000</r>
       <r>  11.4072  0.0000</r>
       <r>  11.4075  0.0000</r>
       <r>  11.4087  0.0000</r>
       <r>  11.7651  0.0000</r>
       <r>  11.8897  0.0000</r>
       <r>  11.8925  0.0000</r>
       <r>  12.2317  0.0000</r>
       <r>  12.2346  0.0000</r>
       <r>  12.2510  0.0000</r>
      </set>
      <set comment="kpoint 5">
       <r> -35.8929  1.0000</r>
       <r> -35.8916  1.0000</r>
       <r> -35.8904  1.0000</r>
       <r> -35.8902  1.0000</r>
       <r> -35.8892  1.0000</r>
       <r> -35.8891  1.0000</r>
       <r> -35.8888  1.0000</r>
       <r> -35.8888  1.0000</r>
       <r> -35.8877  1.0000</r>
       <r> -35.8876  1.0000</r>
       <r> -35.8845  1.0000</r>
       <r> -35.8842  1.0000</r>
       <r> -35.8833  1.0000</r>
       <r> -35.8830  1.0000</r>
       <r> -35.8813  1.0000</r>
       <r> -35.8811  1.0000</r>
       <r> -35.8807  1.0000</r>
       <r> -35.8800  1.0000</r>
       <r> -35.8798  1.0000</r>
       <r> -35.8794  1.0000</r>
       <r> -35.8661  1.0000</r>
       <r> -35.8660  1.0000</r>
       <r> -35.8656  1.0000</r>
       <r> -35.8649  1.0000</r>
       <r> -35.8647  1.0000</r>
       <r> -35.8645  1.0000</r>
       <r> -35.8643  1.0000</r>
       <r> -35.8641  1.0000</r>
       <r> -35.8632  1.0000</r>
       <r> -35.8629  1.0000</r>
       <r> -35.8628  1.0000</r>
       <r> -35.8616  1.0000</r>
       <r> -35.8583  1.0000</r>
       <r> -35.8574  1.0000</r>
       <r> -35.8571  1.0000</r>
       <r> -35.8562  1.0000</r>
       <r> -35.8488  1.0000</r>
       <r> -35.8453  1.0000</r>
       <r> -35.8446  1.0000</r>
       <r> -35.8443  1.0000</r>
       <r> -35.8437  1.0000</r>
       <r> -35.8433  1.0000</r>
       <r> -35.8430  1.0000</r>
       <r> -35.8418  1.0000</r>
       <r> -35.8413  1.0000</r>
       <r> -35.8412  1.0000</r>
       <r> -35.8380  1.0000</r>
       <r> -35.8375  1.0000</r>
       <r> -35.8371  1.0000</r>
       <r> -35.8366  1.0000</r>
       <r> -35.8363  1.0000</r>
       <r> -35.8359  1.0000</r>
       <r> -35.8349  1.0000</r>
       <r> -35.8344  1.0000</r>
       <r>  -6.3783  1.0000</r>
       <r>  -5.0959  1.0000</r>
       <r>  -5.0941  1.0000</r>
       <r>  -4.7795  1.0000</r>
       <r>  -4.7771  1.0000</r>
       <r>  -4.1551  1.0000</r>
       <r>  -4.1527  1.0000</r>
       <r>  -3.9360  1.0000</r>
       <r>  -3.8461  1.0000</r>
       <r>  -3.6495  1.0000</r>
       <r>  -3.6468  1.0000</r>
       <r>  -3.0777  1.0000</r>
       <r>  -3.0749  1.0000</r>
       <r>  -2.7932  1.0000</r>
       <r>  -1.8448  1.0000</r>
       <r>  -1.8425  1.0000</r>
       <r>  -1.3673  1.0000</r>
       <r>  -0.9331  1.0000</r>
       <r>  -0.9305  1.0000</r>
       <r>  -0.9015  1.0000</r>
       <r>  -0.8996  1.0000</r>
       <r>  -0.1600  1.0000</r>
       <r>  -0.0498  1.0000</r>
       <r>  -0.0477  1.0000</r>
       <r>   0.0824  1.0000</r>
       <r>   0.3999  1.0000</r>
       <r>   0.4018  1.0000</r>
       <r>   0.4300  1.0000</r>
       <r>   0.4317  1.0000</r>
       <r>   0.5253  1.0000</r>
       <r>   0.5277  1.0000</r>
       <r>   0.6458  1.0000</r>
       <r>   1.1009  1.0000</r>
       <r>   1.1026  1.0000</r>
       <r>   1.1715  1.0000</r>
       <r>   1.1736  1.0000</r>
       <r>   1.1862  1.0000</r>
       <r>   1.1888  1.0000</r>
       <r>   1.4158  1.0000</r>
       <r>   1.5046  1.0000</r>
       <r>   1.5067  1.0000</r>
       <r>   2.0583  1.0000</r>
       <r>   2.2122  1.0000</r>
       <r>   2.2144  1.0000</r>
       <r>   2.7353  1.0000</r>
       <r>   3.1008  1.0000</r>
       <r>   3.3991  1.0000</r>
       <r>   3.4008  1.0000</r>
       <r>   3.9055  1.0000</r>
       <r>   3.9078  1.0000</r>
       <r>   4.0458  0.9999</r>
       <r>   4.2017  0.9999</r>
       <r>   4.2038  0.9999</r>
       <r>   4.2438  0.9999</r>
       <r>   4.2462  0.9999</r>
       <r>   4.3284  0.9998</r>
       <r>   4.3355  0.9998</r>
       <r>   4.5451  0.9994</r>
       <r>   4.5473  0.9994</r>
       <r>   4.5885  0.9992</r>
       <r>   4.5905  0.9992</r>
       <r>   4.6222  0.9991</r>
       <r>   4.6244  0.9991</r>
       <r>   4.6256  0.9990</r>
       <r>   4.9314  0.9956</r>
       <r>   5.1822  0.9848</r>
       <r>   5.1847  0.9846</r>
       <r>   5.4344  0.9483</r>
       <r>   6.1051  0.3906</r>
       <r>   6.1550  0.3330</r>
       <r>   6.2560  0.2316</r>
       <r>   6.5021  0.0809</r>
       <r>   6.6203  0.0465</r>
       <r>   6.7143  0.0296</r>
       <r>   6.7170  0.0292</r>
       <r>   7.1955  0.0027</r>
       <r>   7.1982  0.0027</r>
       <r>   7.6946  0.0002</r>
       <r>   7.9175  0.0001</r>
       <r>   7.9205  0.0001</r>
       <r>   8.4001  0.0000</r>
       <r>   8.4034  0.0000</r>
       <r>   8.5861  0.0000</r>
       <r>   8.8335  0.0000</r>
       <r>   9.1407  0.0000</r>
       <r>   9.1419  0.0000</r>
       <r>   9.6078  0.0000</r>
       <r>   9.6093  0.0000</r>
       <r>   9.6559  0.0000</r>
       <r>   9.8427  0.0000</r>
       <r>   9.8437  0.0000</r>
       <r>  10.2158  0.0000</r>
       <r>  10.6710  0.0000</r>
       <r>  10.6754  0.0000</r>
       <r>  11.0182  0.0000</r>
       <r>  11.2115  0.0000</r>
       <r>  11.2124  0.0000</r>
       <r>  11.2640  0.0000</r>
       <r>  11.3899  0.0000</r>
       <r>  11.3921  0.0000</r>
       <r>  11.7133  0.0000</r>
       <r>  11.7179  0.0000</r>
       <r>  11.8097  0.0000</r>
       <r>  11.8110  0.0000</r>
       <r>  11.8765  0.0000</r>
       <r>  12.1884  0.0000</r>
      </set>
      <set comment="kpoint 6">
       <r> -35.8947  1.0000</r>
       <r> -35.8945  1.0000</r>
       <r> -35.8935  1.0000</r>
       <r> -35.8931  1.0000</r>
       <r> -35.8918  1.0000</r>
       <r> -35.8905  1.0000</r>
       <r> -35.8899  1.0000</r>
       <r> -35.8886  1.0000</r>
       <r> -35.8875  1.0000</r>
       <r> -35.8872  1.0000</r>
       <r> -35.8864  1.0000</r>
       <r> -35.8858  1.0000</r>
       <r> -35.8783  1.0000</r>
       <r> -35.8777  1.0000</r>
       <r> -35.8777  1.0000</r>
       <r> -35.8773  1.0000</r>
       <r> -35.8770  1.0000</r>
       <r> -35.8766  1.0000</r>
       <r> -35.8764  1.0000</r>
       <r> -35.8758  1.0000</r>
       <r> -35.8673  1.0000</r>
       <r> -35.8671  1.0000</r>
       <r> -35.8668  1.0000</r>
       <r> -35.8666  1.0000</r>
       <r> -35.8661  1.0000</r>
       <r> -35.8659  1.0000</r>
       <r> -35.8656  1.0000</r>
       <r> -35.8653  1.0000</r>
       <r> -35.8625  1.0000</r>
       <r> -35.8625  1.0000</r>
       <r> -35.8614  1.0000</r>
       <r> -35.8613  1.0000</r>
       <r> -35.8606  1.0000</r>
       <r> -35.8594  1.0000</r>
       <r> -35.8580  1.0000</r>
       <r> -35.8568  1.0000</r>
       <r> -35.8484  1.0000</r>
       <r> -35.8458  1.0000</r>
       <r> -35.8454  1.0000</r>
       <r> -35.8439  1.0000</r>
       <r> -35.8436  1.0000</r>
       <r> -35.8428  1.0000</r>
       <r> -35.8426  1.0000</r>
       <r> -35.8419  1.0000</r>
       <r> -35.8415  1.0000</r>
       <r> -35.8408  1.0000</r>
       <r> -35.8385  1.0000</r>
       <r> -35.8381  1.0000</r>
       <r> -35.8368  1.0000</r>
       <r> -35.8364  1.0000</r>
       <r> -35.8359  1.0000</r>
       <r> -35.8356  1.0000</r>
       <r> -35.8351  1.0000</r>
       <r> -35.8345  1.0000</r>
       <r>  -6.2700  1.0000</r>
       <r>  -5.3066  1.0000</r>
       <r>  -5.3052  1.0000</r>
       <r>  -4.9988  1.0000</r>
       <r>  -4.3621  1.0000</r>
       <r>  -4.3600  1.0000</r>
       <r>  -4.1293  1.0000</r>
       <r>  -4.1277  1.0000</r>
       <r>  -3.4430  1.0000</r>
       <r>  -3.4416  1.0000</r>
       <r>  -3.2676  1.0000</r>
       <r>  -3.2653  1.0000</r>
       <r>  -2.5559  1.0000</r>
       <r>  -2.4216  1.0000</r>
       <r>  -2.4199  1.0000</r>
       <r>  -1.9486  1.0000</r>
       <r>  -1.5988  1.0000</r>
       <r>  -1.2950  1.0000</r>
       <r>  -1.2435  1.0000</r>
       <r>  -1.0288  1.0000</r>
       <r>  -0.6411  1.0000</r>
       <r>  -0.6387  1.0000</r>
       <r>  -0.4299  1.0000</r>
       <r>  -0.2662  1.0000</r>
       <r>  -0.1535  1.0000</r>
       <r>  -0.1526  1.0000</r>
       <r>   0.1927  1.0000</r>
       <r>   0.1954  1.0000</r>
       <r>   0.5559  1.0000</r>
       <r>   0.8576  1.0000</r>
       <r>   0.8854  1.0000</r>
       <r>   0.8870  1.0000</r>
       <r>   1.0120  1.0000</r>
       <r>   1.0134  1.0000</r>
       <r>   1.2552  1.0000</r>
       <r>   1.4885  1.0000</r>
       <r>   1.7459  1.0000</r>
       <r>   1.7474  1.0000</r>
       <r>   1.8136  1.0000</r>
       <r>   1.8145  1.0000</r>
       <r>   1.8708  1.0000</r>
       <r>   2.6414  1.0000</r>
       <r>   2.6446  1.0000</r>
       <r>   2.7579  1.0000</r>
       <r>   3.1567  1.0000</r>
       <r>   3.2054  1.0000</r>
       <r>   3.2826  1.0000</r>
       <r>   3.2862  1.0000</r>
       <r>   3.4237  1.0000</r>
       <r>   3.4262  1.0000</r>
       <r>   3.7037  1.0000</r>
       <r>   3.7057  1.0000</r>
       <r>   3.8535  1.0000</r>
       <r>   3.8562  1.0000</r>
       <r>   4.0383  0.9999</r>
       <r>   4.0404  0.9999</r>
       <r>   4.1291  0.9999</r>
       <r>   4.1305  0.9999</r>
       <r>   4.5819  0.9992</r>
       <r>   4.5854  0.9992</r>
       <r>   4.6786  0.9988</r>
       <r>   4.9315  0.9956</r>
       <r>   4.9351  0.9955</r>
       <r>   5.0109  0.9935</r>
       <r>   5.0133  0.9934</r>
       <r>   5.2258  0.9811</r>
       <r>   5.6276  0.8746</r>
       <r>   5.6409  0.8672</r>
       <r>   5.6426  0.8662</r>
       <r>   5.7538  0.7878</r>
       <r>   5.7554  0.7864</r>
       <r>   5.9758  0.5502</r>
       <r>   6.0650  0.4392</r>
       <r>   6.3382  0.1665</r>
       <r>   6.6370  0.0429</r>
       <r>   6.9210  0.0107</r>
       <r>   7.2457  0.0021</r>
       <r>   7.2484  0.0021</r>
       <r>   7.7955  0.0001</r>
       <r>   8.6304  0.0000</r>
       <r>   8.6916  0.0000</r>
       <r>   8.6925  0.0000</r>
       <r>   9.0110  0.0000</r>
       <r>   9.1891  0.0000</r>
       <r>   9.1909  0.0000</r>
       <r>   9.5998  0.0000</r>
       <r>   9.6006  0.0000</r>
       <r>   9.7612  0.0000</r>
       <r>   9.7640  0.0000</r>
       <r>   9.9924  0.0000</r>
       <r>   9.9953  0.0000</r>
       <r>  10.1844  0.0000</r>
       <r>  10.3350  0.0000</r>
       <r>  11.0702  0.0000</r>
       <r>  11.0744  0.0000</r>
       <r>  11.1942  0.0000</r>
       <r>  11.1954  0.0000</r>
       <r>  11.2912  0.0000</r>
       <r>  11.6649  0.0000</r>
       <r>  11.6677  0.0000</r>
       <r>  11.7279  0.0000</r>
       <r>  11.9225  0.0000</r>
       <r>  11.9239  0.0000</r>
       <r>  12.1003  0.0000</r>
       <r>  12.1039  0.0000</r>
       <r>  12.1430  0.0000</r>
      </set>
      <set comment="kpoint 7">
       <r> -35.8969  1.0000</r>
       <r> -35.8956  1.0000</r>
       <r> -35.8950  1.0000</r>
       <r> -35.8940  1.0000</r>
       <r> -35.8937  1.0000</r>
       <r> -35.8927  1.0000</r>
       <r> -35.8903  1.0000</r>
       <r> -35.8894  1.0000</r>
       <r> -35.8890  1.0000</r>
       <r> -35.8882  1.0000</r>
       <r> -35.8853  1.0000</r>
       <r> -35.8841  1.0000</r>
       <r> -35.8757  1.0000</r>
       <r> -35.8745  1.0000</r>
       <r> -35.8742  1.0000</r>
       <r> -35.8732  1.0000</r>
       <r> -35.8731  1.0000</r>
       <r> -35.8720  1.0000</r>
       <r> -35.8710  1.0000</r>
       <r> -35.8703  1.0000</r>
       <r> -35.8698  1.0000</r>
       <r> -35.8695  1.0000</r>
       <r> -35.8691  1.0000</r>
       <r> -35.8683  1.0000</r>
       <r> -35.8678  1.0000</r>
       <r> -35.8676  1.0000</r>
       <r> -35.8666  1.0000</r>
       <r> -35.8664  1.0000</r>
       <r> -35.8650  1.0000</r>
       <r> -35.8638  1.0000</r>
       <r> -35.8626  1.0000</r>
       <r> -35.8614  1.0000</r>
       <r> -35.8608  1.0000</r>
       <r> -35.8596  1.0000</r>
       <r> -35.8591  1.0000</r>
       <r> -35.8580  1.0000</r>
       <r> -35.8477  1.0000</r>
       <r> -35.8467  1.0000</r>
       <r> -35.8458  1.0000</r>
       <r> -35.8439  1.0000</r>
       <r> -35.8431  1.0000</r>
       <r> -35.8425  1.0000</r>
       <r> -35.8423  1.0000</r>
       <r> -35.8422  1.0000</r>
       <r> -35.8418  1.0000</r>
       <r> -35.8402  1.0000</r>
       <r> -35.8393  1.0000</r>
       <r> -35.8385  1.0000</r>
       <r> -35.8368  1.0000</r>
       <r> -35.8360  1.0000</r>
       <r> -35.8356  1.0000</r>
       <r> -35.8355  1.0000</r>
       <r> -35.8352  1.0000</r>
       <r> -35.8346  1.0000</r>
       <r>  -6.0542  1.0000</r>
       <r>  -5.7322  1.0000</r>
       <r>  -5.4122  1.0000</r>
       <r>  -4.8049  1.0000</r>
       <r>  -4.5146  1.0000</r>
       <r>  -4.4651  1.0000</r>
       <r>  -4.2250  1.0000</r>
       <r>  -3.8461  1.0000</r>
       <r>  -3.3619  1.0000</r>
       <r>  -3.2401  1.0000</r>
       <r>  -2.9524  1.0000</r>
       <r>  -2.7935  1.0000</r>
       <r>  -2.6942  1.0000</r>
       <r>  -2.4056  1.0000</r>
       <r>  -2.2340  1.0000</r>
       <r>  -1.9673  1.0000</r>
       <r>  -1.7284  1.0000</r>
       <r>  -1.5549  1.0000</r>
       <r>  -1.4585  1.0000</r>
       <r>  -1.2837  1.0000</r>
       <r>  -1.0232  1.0000</r>
       <r>  -0.9974  1.0000</r>
       <r>  -0.6626  1.0000</r>
       <r>  -0.6322  1.0000</r>
       <r>  -0.4151  1.0000</r>
       <r>  -0.2716  1.0000</r>
       <r>  -0.1677  1.0000</r>
       <r>   0.1955  1.0000</r>
       <r>   0.5851  1.0000</r>
       <r>   0.7767  1.0000</r>
       <r>   0.9829  1.0000</r>
       <r>   1.3438  1.0000</r>
       <r>   1.4385  1.0000</r>
       <r>   1.5693  1.0000</r>
       <r>   1.5742  1.0000</r>
       <r>   2.0720  1.0000</r>
       <r>   2.1358  1.0000</r>
       <r>   2.1598  1.0000</r>
       <r>   2.2720  1.0000</r>
       <r>   2.2753  1.0000</r>
       <r>   2.4040  1.0000</r>
       <r>   2.4934  1.0000</r>
       <r>   2.6704  1.0000</r>
       <r>   2.7456  1.0000</r>
       <r>   2.8857  1.0000</r>
       <r>   3.0011  1.0000</r>
       <r>   3.0108  1.0000</r>
       <r>   3.1500  1.0000</r>
       <r>   3.3799  1.0000</r>
       <r>   3.4136  1.0000</r>
       <r>   3.4352  1.0000</r>
       <r>   3.6025  1.0000</r>
       <r>   3.7233  1.0000</r>
       <r>   3.7598  1.0000</r>
       <r>   3.7687  1.0000</r>
       <r>   3.9351  1.0000</r>
       <r>   4.0302  1.0000</r>
       <r>   4.2812  0.9998</r>
       <r>   4.3404  0.9998</r>
       <r>   4.6922  0.9987</r>
       <r>   4.8049  0.9977</r>
       <r>   4.8691  0.9968</r>
       <r>   4.8855  0.9965</r>
       <r>   4.9250  0.9957</r>
       <r>   5.0326  0.9927</r>
       <r>   5.2116  0.9824</r>
       <r>   5.3059  0.9721</r>
       <r>   5.3886  0.9584</r>
       <r>   5.4868  0.9338</r>
       <r>   5.5185  0.9233</r>
       <r>   5.8795  0.6644</r>
       <r>   5.9123  0.6269</r>
       <r>   6.0362  0.4749</r>
       <r>   6.1296  0.3618</r>
       <r>   6.1833  0.3024</r>
[...]
       <r>  11.5389  0.0000</r>
       <r>  11.5731  0.0000</r>
       <r>  11.5759  0.0000</r>
       <r>  11.9804  0.0000</r>
       <r>  11.9814  0.0000</r>
       <r>  12.0400  0.0000</r>
       <r>  12.0426  0.0000</r>
       <r>  12.0532  0.0000</r>
       <r>  12.0547  0.0000</r>
       <r>  12.1459  0.0000</r>
       <r>  12.3490  0.0000</r>
       <r>  12.3502  0.0000</r>
      </set>
      <set comment="kpoint 162">
       <r> -35.8968  1.0000</r>
       <r> -35.8958  1.0000</r>
       <r> -35.8949  1.0000</r>
       <r> -35.8939  1.0000</r>
       <r> -35.8938  1.0000</r>
       <r> -35.8929  1.0000</r>
       <r> -35.8901  1.0000</r>
       <r> -35.8893  1.0000</r>
       <r> -35.8891  1.0000</r>
       <r> -35.8882  1.0000</r>
       <r> -35.8852  1.0000</r>
       <r> -35.8842  1.0000</r>
       <r> -35.8756  1.0000</r>
       <r> -35.8745  1.0000</r>
       <r> -35.8741  1.0000</r>
       <r> -35.8732  1.0000</r>
       <r> -35.8731  1.0000</r>
       <r> -35.8721  1.0000</r>
       <r> -35.8709  1.0000</r>
       <r> -35.8702  1.0000</r>
       <r> -35.8699  1.0000</r>
       <r> -35.8694  1.0000</r>
       <r> -35.8692  1.0000</r>
       <r> -35.8684  1.0000</r>
       <r> -35.8677  1.0000</r>
       <r> -35.8675  1.0000</r>
       <r> -35.8667  1.0000</r>
       <r> -35.8665  1.0000</r>
       <r> -35.8649  1.0000</r>
       <r> -35.8640  1.0000</r>
       <r> -35.8625  1.0000</r>
       <r> -35.8615  1.0000</r>
       <r> -35.8607  1.0000</r>
       <r> -35.8597  1.0000</r>
       <r> -35.8590  1.0000</r>
       <r> -35.8580  1.0000</r>
       <r> -35.8450  1.0000</r>
       <r> -35.8439  1.0000</r>
       <r> -35.8433  1.0000</r>
       <r> -35.8430  1.0000</r>
       <r> -35.8423  1.0000</r>
       <r> -35.8415  1.0000</r>
       <r> -35.8412  1.0000</r>
       <r> -35.8403  1.0000</r>
       <r> -35.8398  1.0000</r>
       <r> -35.8397  1.0000</r>
       <r> -35.8395  1.0000</r>
       <r> -35.8394  1.0000</r>
       <r> -35.8391  1.0000</r>
       <r> -35.8387  1.0000</r>
       <r> -35.8382  1.0000</r>
       <r> -35.8381  1.0000</r>
       <r> -35.8378  1.0000</r>
       <r> -35.8370  1.0000</r>
       <r>  -5.6521  1.0000</r>
       <r>  -5.4487  1.0000</r>
       <r>  -5.3377  1.0000</r>
       <r>  -5.1388  1.0000</r>
       <r>  -5.0252  1.0000</r>
       <r>  -4.8307  1.0000</r>
       <r>  -4.0995  1.0000</r>
       <r>  -3.9174  1.0000</r>
       <r>  -3.4940  1.0000</r>
       <r>  -3.3196  1.0000</r>
       <r>  -2.9009  1.0000</r>
       <r>  -2.7336  1.0000</r>
       <r>  -2.6199  1.0000</r>
       <r>  -2.4560  1.0000</r>
       <r>  -2.3692  1.0000</r>
       <r>  -2.2087  1.0000</r>
       <r>  -2.0859  1.0000</r>
       <r>  -1.9282  1.0000</r>
       <r>  -1.2408  1.0000</r>
       <r>  -1.0901  1.0000</r>
       <r>  -0.9771  1.0000</r>
       <r>  -0.8304  1.0000</r>
       <r>  -0.7230  1.0000</r>
       <r>  -0.5786  1.0000</r>
       <r>   0.4712  1.0000</r>
       <r>   0.5384  1.0000</r>
       <r>   0.6041  1.0000</r>
       <r>   0.8547  1.0000</r>
       <r>   0.8782  1.0000</r>
       <r>   0.9827  1.0000</r>
       <r>   1.2141  1.0000</r>
       <r>   1.2189  1.0000</r>
       <r>   1.5506  1.0000</r>
       <r>   1.7906  1.0000</r>
       <r>   1.8212  1.0000</r>
       <r>   1.8780  1.0000</r>
       <r>   1.8885  1.0000</r>
       <r>   1.9345  1.0000</r>
       <r>   2.1954  1.0000</r>
       <r>   2.3336  1.0000</r>
       <r>   2.4245  1.0000</r>
       <r>   2.6722  1.0000</r>
       <r>   2.6874  1.0000</r>
       <r>   2.7854  1.0000</r>
       <r>   2.9214  1.0000</r>
       <r>   3.1449  1.0000</r>
       <r>   3.1640  1.0000</r>
       <r>   3.1807  1.0000</r>
       <r>   3.2331  1.0000</r>
       <r>   3.3761  1.0000</r>
       <r>   3.4373  1.0000</r>
       <r>   3.4786  1.0000</r>
       <r>   3.4802  1.0000</r>
       <r>   3.6110  1.0000</r>
       <r>   3.7099  1.0000</r>
       <r>   3.7310  1.0000</r>
       <r>   3.7933  1.0000</r>
       <r>   3.9855  1.0000</r>
       <r>   4.0489  0.9999</r>
       <r>   4.0546  0.9999</r>
       <r>   4.0828  0.9999</r>
       <r>   4.2122  0.9999</r>
       <r>   4.3113  0.9998</r>
       <r>   4.4521  0.9996</r>
       <r>   4.5206  0.9994</r>
       <r>   4.6450  0.9989</r>
       <r>   4.9947  0.9940</r>
       <r>   5.0807  0.9908</r>
       <r>   5.1754  0.9853</r>
       <r>   5.2362  0.9801</r>
       <r>   5.6651  0.8526</r>
       <r>   5.7269  0.8094</r>
       <r>   6.1770  0.3091</r>
       <r>   6.1801  0.3058</r>
       <r>   6.4922  0.0847</r>
       <r>   6.7943  0.0200</r>
       <r>   6.8040  0.0191</r>
       <r>   7.1048  0.0043</r>
       <r>   7.1254  0.0039</r>
       <r>   7.7048  0.0002</r>
       <r>   7.7767  0.0002</r>
       <r>   8.3511  0.0000</r>
       <r>   8.7449  0.0000</r>
       <r>   9.2986  0.0000</r>
       <r>  10.6004  0.0000</r>
       <r>  11.0759  0.0000</r>
       <r>  11.0853  0.0000</r>
       <r>  11.1415  0.0000</r>
       <r>  11.2065  0.0000</r>
       <r>  11.3507  0.0000</r>
       <r>  11.3665  0.0000</r>
       <r>  11.6373  0.0000</r>
       <r>  11.8730  0.0000</r>
       <r>  11.9157  0.0000</r>
       <r>  12.0112  0.0000</r>
       <r>  12.0396  0.0000</r>
       <r>  12.0549  0.0000</r>
       <r>  12.1499  0.0000</r>
       <r>  12.1888  0.0000</r>
       <r>  12.4575  0.0000</r>
       <r>  12.4746  0.0000</r>
       <r>  12.5154  0.0000</r>
       <r>  12.5190  0.0000</r>
       <r>  12.5319  0.0000</r>
       <r>  12.5748  0.0000</r>
       <r>  12.6150  0.0000</r>
      </set>
      <set comment="kpoint 163">
       <r> -35.8968  1.0000</r>
       <r> -35.8958  1.0000</r>
       <r> -35.8949  1.0000</r>
       <r> -35.8939  1.0000</r>
       <r> -35.8938  1.0000</r>
       <r> -35.8929  1.0000</r>
       <r> -35.8901  1.0000</r>
       <r> -35.8893  1.0000</r>
       <r> -35.8891  1.0000</r>
       <r> -35.8883  1.0000</r>
       <r> -35.8852  1.0000</r>
       <r> -35.8842  1.0000</r>
       <r> -35.8756  1.0000</r>
       <r> -35.8745  1.0000</r>
       <r> -35.8742  1.0000</r>
       <r> -35.8732  1.0000</r>
       <r> -35.8731  1.0000</r>
       <r> -35.8721  1.0000</r>
       <r> -35.8709  1.0000</r>
       <r> -35.8702  1.0000</r>
       <r> -35.8699  1.0000</r>
       <r> -35.8694  1.0000</r>
       <r> -35.8692  1.0000</r>
       <r> -35.8684  1.0000</r>
       <r> -35.8677  1.0000</r>
       <r> -35.8675  1.0000</r>
       <r> -35.8667  1.0000</r>
       <r> -35.8665  1.0000</r>
       <r> -35.8649  1.0000</r>
       <r> -35.8639  1.0000</r>
       <r> -35.8625  1.0000</r>
       <r> -35.8615  1.0000</r>
       <r> -35.8607  1.0000</r>
       <r> -35.8597  1.0000</r>
       <r> -35.8590  1.0000</r>
       <r> -35.8581  1.0000</r>
       <r> -35.8450  1.0000</r>
       <r> -35.8439  1.0000</r>
       <r> -35.8433  1.0000</r>
       <r> -35.8430  1.0000</r>
       <r> -35.8424  1.0000</r>
       <r> -35.8415  1.0000</r>
       <r> -35.8412  1.0000</r>
       <r> -35.8403  1.0000</r>
       <r> -35.8398  1.0000</r>
       <r> -35.8396  1.0000</r>
       <r> -35.8395  1.0000</r>
       <r> -35.8394  1.0000</r>
       <r> -35.8391  1.0000</r>
       <r> -35.8385  1.0000</r>
       <r> -35.8383  1.0000</r>
       <r> -35.8382  1.0000</r>
       <r> -35.8378  1.0000</r>
       <r> -35.8369  1.0000</r>
       <r>  -5.6521  1.0000</r>
       <r>  -5.4487  1.0000</r>
       <r>  -5.3377  1.0000</r>
       <r>  -5.1388  1.0000</r>
       <r>  -5.0252  1.0000</r>
       <r>  -4.8307  1.0000</r>
       <r>  -4.0995  1.0000</r>
       <r>  -3.9174  1.0000</r>
       <r>  -3.4940  1.0000</r>
       <r>  -3.3196  1.0000</r>
       <r>  -2.9009  1.0000</r>
       <r>  -2.7336  1.0000</r>
       <r>  -2.6200  1.0000</r>
       <r>  -2.4561  1.0000</r>
       <r>  -2.3692  1.0000</r>
       <r>  -2.2087  1.0000</r>
       <r>  -2.0856  1.0000</r>
       <r>  -1.9279  1.0000</r>
       <r>  -1.2408  1.0000</r>
       <r>  -1.0901  1.0000</r>
       <r>  -0.9779  1.0000</r>
       <r>  -0.8312  1.0000</r>
       <r>  -0.7223  1.0000</r>
       <r>  -0.5779  1.0000</r>
       <r>   0.4721  1.0000</r>
       <r>   0.5384  1.0000</r>
       <r>   0.6051  1.0000</r>
       <r>   0.8539  1.0000</r>
       <r>   0.8782  1.0000</r>
       <r>   0.9818  1.0000</r>
       <r>   1.2141  1.0000</r>
       <r>   1.2189  1.0000</r>
       <r>   1.5507  1.0000</r>
       <r>   1.7896  1.0000</r>
       <r>   1.8208  1.0000</r>
       <r>   1.8781  1.0000</r>
       <r>   1.8874  1.0000</r>
       <r>   1.9341  1.0000</r>
       <r>   2.1955  1.0000</r>
       <r>   2.3343  1.0000</r>
       <r>   2.4252  1.0000</r>
       <r>   2.6732  1.0000</r>
       <r>   2.6880  1.0000</r>
       <r>   2.7856  1.0000</r>
       <r>   2.9221  1.0000</r>
       <r>   3.1451  1.0000</r>
       <r>   3.1632  1.0000</r>
       <r>   3.1812  1.0000</r>
       <r>   3.2324  1.0000</r>
       <r>   3.3766  1.0000</r>
       <r>   3.4368  1.0000</r>
       <r>   3.4794  1.0000</r>
       <r>   3.4804  1.0000</r>
       <r>   3.6103  1.0000</r>
       <r>   3.7101  1.0000</r>
       <r>   3.7310  1.0000</r>
       <r>   3.7931  1.0000</r>
       <r>   3.9850  1.0000</r>
       <r>   4.0498  0.9999</r>
       <r>   4.0541  0.9999</r>
       <r>   4.0823  0.9999</r>
       <r>   4.2115  0.9999</r>
       <r>   4.3112  0.9998</r>
       <r>   4.4515  0.9996</r>
       <r>   4.5199  0.9994</r>
       <r>   4.6458  0.9989</r>
       <r>   4.9958  0.9939</r>
       <r>   5.0819  0.9907</r>
       <r>   5.1759  0.9852</r>
       <r>   5.2367  0.9801</r>
       <r>   5.6639  0.8533</r>
       <r>   5.7257  0.8103</r>
       <r>   6.1770  0.3091</r>
       <r>   6.1787  0.3073</r>
       <r>   6.4935  0.0842</r>
       <r>   6.7930  0.0201</r>
       <r>   6.8041  0.0191</r>
       <r>   7.1061  0.0043</r>
       <r>   7.1261  0.0039</r>
       <r>   7.7058  0.0002</r>
       <r>   7.7759  0.0002</r>
       <r>   8.3499  0.0000</r>
       <r>   8.7446  0.0000</r>
       <r>   9.2986  0.0000</r>
       <r>  10.6002  0.0000</r>
       <r>  11.0769  0.0000</r>
       <r>  11.0852  0.0000</r>
       <r>  11.1414  0.0000</r>
       <r>  11.2052  0.0000</r>
       <r>  11.3517  0.0000</r>
       <r>  11.3666  0.0000</r>
       <r>  11.6360  0.0000</r>
       <r>  11.8725  0.0000</r>
       <r>  11.9178  0.0000</r>
       <r>  12.0105  0.0000</r>
       <r>  12.0374  0.0000</r>
       <r>  12.0543  0.0000</r>
       <r>  12.1490  0.0000</r>
       <r>  12.1894  0.0000</r>
       <r>  12.4570  0.0000</r>
       <r>  12.4753  0.0000</r>
       <r>  12.5165  0.0000</r>
       <r>  12.5178  0.0000</r>
       <r>  12.5342  0.0000</r>
       <r>  12.5745  0.0000</r>
       <r>  12.6151  0.0000</r>
      </set>
      <set comment="kpoint 164">
       <r> -35.8946  1.0000</r>
       <r> -35.8943  1.0000</r>
       <r> -35.8937  1.0000</r>
       <r> -35.8933  1.0000</r>
       <r> -35.8916  1.0000</r>
       <r> -35.8906  1.0000</r>
       <r> -35.8898  1.0000</r>
       <r> -35.8888  1.0000</r>
       <r> -35.8874  1.0000</r>
       <r> -35.8870  1.0000</r>
       <r> -35.8866  1.0000</r>
       <r> -35.8859  1.0000</r>
       <r> -35.8782  1.0000</r>
       <r> -35.8776  1.0000</r>
       <r> -35.8775  1.0000</r>
       <r> -35.8772  1.0000</r>
       <r> -35.8771  1.0000</r>
       <r> -35.8768  1.0000</r>
       <r> -35.8766  1.0000</r>
       <r> -35.8759  1.0000</r>
       <r> -35.8672  1.0000</r>
       <r> -35.8670  1.0000</r>
       <r> -35.8667  1.0000</r>
       <r> -35.8664  1.0000</r>
       <r> -35.8662  1.0000</r>
       <r> -35.8661  1.0000</r>
       <r> -35.8657  1.0000</r>
       <r> -35.8653  1.0000</r>
       <r> -35.8625  1.0000</r>
       <r> -35.8624  1.0000</r>
       <r> -35.8615  1.0000</r>
       <r> -35.8613  1.0000</r>
       <r> -35.8605  1.0000</r>
       <r> -35.8595  1.0000</r>
       <r> -35.8579  1.0000</r>
       <r> -35.8569  1.0000</r>
       <r> -35.8456  1.0000</r>
       <r> -35.8440  1.0000</r>
       <r> -35.8430  1.0000</r>
       <r> -35.8426  1.0000</r>
       <r> -35.8417  1.0000</r>
       <r> -35.8412  1.0000</r>
       <r> -35.8410  1.0000</r>
       <r> -35.8407  1.0000</r>
       <r> -35.8401  1.0000</r>
       <r> -35.8399  1.0000</r>
       <r> -35.8395  1.0000</r>
       <r> -35.8395  1.0000</r>
       <r> -35.8391  1.0000</r>
       <r> -35.8387  1.0000</r>
       <r> -35.8386  1.0000</r>
       <r> -35.8382  1.0000</r>
       <r> -35.8376  1.0000</r>
       <r> -35.8369  1.0000</r>
       <r>  -5.8628  1.0000</r>
       <r>  -5.6563  1.0000</r>
       <r>  -4.9220  1.0000</r>
       <r>  -4.9206  1.0000</r>
       <r>  -4.7290  1.0000</r>
       <r>  -4.7275  1.0000</r>
       <r>  -3.9988  1.0000</r>
       <r>  -3.9966  1.0000</r>
       <r>  -3.8180  1.0000</r>
       <r>  -3.8158  1.0000</r>
       <r>  -3.0999  1.0000</r>
       <r>  -3.0984  1.0000</r>
       <r>  -2.9303  1.0000</r>
       <r>  -2.9287  1.0000</r>
       <r>  -2.2309  1.0000</r>
       <r>  -2.0713  1.0000</r>
       <r>  -1.6384  1.0000</r>
       <r>  -1.4854  1.0000</r>
       <r>  -0.9897  1.0000</r>
       <r>  -0.8434  1.0000</r>
       <r>  -0.3473  1.0000</r>
       <r>  -0.3448  1.0000</r>
       <r>  -0.2066  1.0000</r>
       <r>  -0.2041  1.0000</r>
       <r>   0.0189  1.0000</r>
       <r>   0.1572  1.0000</r>
       <r>   0.3096  1.0000</r>
       <r>   0.9955  1.0000</r>
       <r>   1.0932  1.0000</r>
       <r>   1.2009  1.0000</r>
       <r>   1.2720  1.0000</r>
       <r>   1.2735  1.0000</r>
       <r>   1.3230  1.0000</r>
       <r>   1.3241  1.0000</r>
       <r>   1.3933  1.0000</r>
       <r>   1.3948  1.0000</r>
       <r>   1.4828  1.0000</r>
       <r>   1.5878  1.0000</r>
       <r>   1.9816  1.0000</r>
       <r>   1.9827  1.0000</r>
       <r>   2.3060  1.0000</r>
       <r>   2.3078  1.0000</r>
       <r>   2.8872  1.0000</r>
       <r>   2.8904  1.0000</r>
       <r>   2.9360  1.0000</r>
       <r>   2.9379  1.0000</r>
       <r>   2.9921  1.0000</r>
       <r>   2.9954  1.0000</r>
       <r>   3.1698  1.0000</r>
       <r>   3.1709  1.0000</r>
       <r>   3.6069  1.0000</r>
       <r>   3.6093  1.0000</r>
       <r>   3.6715  1.0000</r>
       <r>   3.6741  1.0000</r>
       <r>   3.7632  1.0000</r>
       <r>   3.7644  1.0000</r>
       <r>   3.8606  1.0000</r>
       <r>   3.8627  1.0000</r>
       <r>   3.8946  1.0000</r>
       <r>   3.8966  1.0000</r>
       <r>   4.0816  0.9999</r>
       <r>   4.4439  0.9996</r>
       <r>   4.6881  0.9987</r>
       <r>   4.7222  0.9985</r>
       <r>   4.7258  0.9984</r>
       <r>   4.7820  0.9979</r>
       <r>   4.7855  0.9979</r>
       <r>   5.0356  0.9926</r>
       <r>   5.7961  0.7502</r>
       <r>   5.8717  0.6730</r>
       <r>   5.9598  0.5699</r>
       <r>   6.1203  0.3726</r>
       <r>   6.1828  0.3029</r>
       <r>   6.4589  0.0985</r>
       <r>   6.5650  0.0604</r>
       <r>   6.8939  0.0123</r>
       <r>   6.8957  0.0122</r>
       <r>   7.0427  0.0059</r>
       <r>   7.4940  0.0006</r>
       <r>   7.4962  0.0006</r>
       <r>   8.4089  0.0000</r>
       <r>   8.4118  0.0000</r>
       <r>   8.9686  0.0000</r>
       <r>   8.9715  0.0000</r>
       <r>  10.2086  0.0000</r>
       <r>  10.2110  0.0000</r>
       <r>  10.6358  0.0000</r>
       <r>  10.6386  0.0000</r>
       <r>  10.9510  0.0000</r>
       <r>  11.2114  0.0000</r>
       <r>  11.2146  0.0000</r>
       <r>  11.4239  0.0000</r>
       <r>  11.4394  0.0000</r>
       <r>  11.4424  0.0000</r>
       <r>  11.5393  0.0000</r>
       <r>  11.5735  0.0000</r>
       <r>  11.5767  0.0000</r>
       <r>  11.9791  0.0000</r>
       <r>  11.9831  0.0000</r>
       <r>  12.0412  0.0000</r>
       <r>  12.0429  0.0000</r>
       <r>  12.0519  0.0000</r>
       <r>  12.0542  0.0000</r>
       <r>  12.1464  0.0000</r>
       <r>  12.3493  0.0000</r>
       <r>  12.3514  0.0000</r>
      </set>
     </set>
    </set>
   </array>
  </eigenvalues>
 </calculation>
 <structure name="finalpos" >
  <crystal>
   <varray name="basis" >
    <v>       9.22926428       0.00000000       0.00000000 </v>
    <v>      -4.61463214       7.99277733       0.00000000 </v>
    <v>       0.00000000       0.00000000       7.04667455 </v>
   </varray>
   <i name="volume">    519.81524302</i>
   <varray name="rec_basis" >
    <v>       0.10835100       0.06255648       0.00000000 </v>
    <v>       0.00000000       0.12511296       0.00000000 </v>
    <v>       0.00000000       0.00000000       0.14191091 </v>
   </varray>
  </crystal>
  <varray name="positions" >
   <v>       0.00000000       0.00000000       0.00000000 </v>
   <v>       0.33333333       0.00000000       0.00000000 </v>
   <v>       0.66666667       0.00000000       0.00000000 </v>
   <v>       0.00000000       0.33333333       0.00000000 </v>
   <v>       0.33333333       0.33333333       0.00000000 </v>
   <v>       0.66666667       0.33333333       0.00000000 </v>
   <v>       0.00000000       0.66666667       0.00000000 </v>
   <v>       0.33333333       0.66666667       0.00000000 </v>
   <v>       0.66666667       0.66666667       0.00000000 </v>
   <v>       0.00000000       0.00000000       0.50000000 </v>
   <v>       0.33333333       0.00000000       0.50000000 </v>
   <v>       0.66666667       0.00000000       0.50000000 </v>
   <v>       0.00000000       0.33333333       0.50000000 </v>
   <v>       0.33333333       0.33333333       0.50000000 </v>
   <v>       0.66666667       0.33333333       0.50000000 </v>
   <v>       0.00000000       0.66666667       0.50000000 </v>
   <v>       0.33333333       0.66666667       0.50000000 </v>
   <v>       0.66666667       0.66666667       0.50000000 </v>
   <v>       0.11197230       0.22222222       0.25086119 </v>
   <v>       0.44444444       0.22222222       0.25000000 </v>
   <v>       0.77777778       0.22222222       0.25000000 </v>
   <v>       0.11111111       0.55555556       0.25000000 </v>
   <v>       0.44444444       0.55555556       0.25000000 </v>
   <v>       0.77777778       0.55555556       0.25000000 </v>
   <v>       0.11111111       0.88888889       0.25000000 </v>
   <v>       0.44444444       0.88888889       0.25000000 </v>
   <v>       0.77777778       0.88888889       0.25000000 </v>
   <v>       0.11111111       0.22222222       0.75000000 </v>
   <v>       0.44444444       0.22222222       0.75000000 </v>
   <v>       0.77777778       0.22222222       0.75000000 </v>
   <v>       0.11111111       0.55555556       0.75000000 </v>
   <v>       0.44444444       0.55555556       0.75000000 </v>
   <v>       0.77777778       0.55555556       0.75000000 </v>
   <v>       0.11111111       0.88888889       0.75000000 </v>
   <v>       0.44444444       0.88888889       0.75000000 </v>
   <v>       0.77777778       0.88888889       0.75000000 </v>
   <v>       0.22222222       0.11111111       0.25000000 </v>
   <v>       0.55555556       0.11111111       0.25000000 </v>
   <v>       0.88888889       0.11111111       0.25000000 </v>
   <v>       0.22222222       0.44444444       0.25000000 </v>
   <v>       0.55555556       0.44444444       0.25000000 </v>
   <v>       0.88888889       0.44444444       0.25000000 </v>
   <v>       0.22222222       0.77777778       0.25000000 </v>
   <v>       0.55555556       0.77777778       0.25000000 </v>
   <v>       0.88888889       0.77777778       0.25000000 </v>
   <v>       0.22222222       0.11111111       0.75000000 </v>
   <v>       0.55555556       0.11111111       0.75000000 </v>
   <v>       0.88888889       0.11111111       0.75000000 </v>
   <v>       0.22222222       0.44444444       0.75000000 </v>
   <v>       0.55555556       0.44444444       0.75000000 </v>
   <v>       0.88888889       0.44444444       0.75000000 </v>
   <v>       0.22222222       0.77777778       0.75000000 </v>
   <v>       0.55555556       0.77777778       0.75000000 </v>
   <v>       0.88888889       0.77777778       0.75000000 </v>
  </varray>
 </structure>
</modeling>
