natom:   16
displacements:
- atom:    1
  direction:
    [   1.0000000000000000,  0.0000000000000000,  0.0000000000000000 ]
  displacement:
    [   0.0000000000000000,  0.0070710678118655,  0.0070710678118655 ]
lattice:
- [    0.000000000000000,   5.466198843774785,   5.466198843774785 ]
- [    5.466198843774785,   0.000000000000000,   5.466198843774785 ]
- [    5.466198843774785,   5.466198843774785,   0.000000000000000 ]
atoms:
- symbol: Si # 1
  position: [   0.43750000000000,  0.43750000000000,  0.43750000000000 ]
- symbol: Si # 2
  position: [   0.93750000000000,  0.43750000000000,  0.43750000000000 ]
- symbol: Si # 3
  position: [   0.43750000000000,  0.93750000000000,  0.43750000000000 ]
- symbol: Si # 4
  position: [   0.93750000000000,  0.93750000000000,  0.43750000000000 ]
- symbol: Si # 5
  position: [   0.43750000000000,  0.43750000000000,  0.93750000000000 ]
- symbol: Si # 6
  position: [   0.93750000000000,  0.43750000000000,  0.93750000000000 ]
- symbol: Si # 7
  position: [   0.43750000000000,  0.93750000000000,  0.93750000000000 ]
- symbol: Si # 8
  position: [   0.93750000000000,  0.93750000000000,  0.93750000000000 ]
- symbol: Si # 9
  position: [   0.06250000000000,  0.06250000000000,  0.06250000000000 ]
- symbol: Si # 10
  position: [   0.56250000000000,  0.06250000000000,  0.06250000000000 ]
- symbol: Si # 11
  position: [   0.06250000000000,  0.56250000000000,  0.06250000000000 ]
- symbol: Si # 12
  position: [   0.56250000000000,  0.56250000000000,  0.06250000000000 ]
- symbol: Si # 13
  position: [   0.06250000000000,  0.06250000000000,  0.56250000000000 ]
- symbol: Si # 14
  position: [   0.56250000000000,  0.06250000000000,  0.56250000000000 ]
- symbol: Si # 15
  position: [   0.06250000000000,  0.56250000000000,  0.56250000000000 ]
- symbol: Si # 16
  position: [   0.56250000000000,  0.56250000000000,  0.56250000000000 ]
