nqpoint: 204    
npath: 4      
natom: 2      
phonon:
- q-position: [    0.0000000,    0.0000000,    0.0000000 ]
  distance:    0.0000000
  band:
  - # 1
    frequency:   -6.2128582358
  - # 2
    frequency:   -4.6565526499
  - # 3
    frequency:    1.8712483003
  - # 4
    frequency:    3.0428954128
  - # 5
    frequency:    4.3625843532
  - # 6
    frequency:    4.9477873112

- q-position: [    0.0100000,    0.0000000,    0.0000000 ]
  distance:    0.0030439
  band:
  - # 1
    frequency:   -6.3352629979
  - # 2
    frequency:   -6.1538032668
  - # 3
    frequency:   -4.5733103055
  - # 4
    frequency:    2.1237210908
  - # 5
    frequency:    4.2601607416
  - # 6
    frequency:    4.6604926115

- q-position: [    0.0200000,    0.0000000,    0.0000000 ]
  distance:    0.0060877
  band:
  - # 1
    frequency:   -6.3296666223
  - # 2
    frequency:   -6.1538851341
  - # 3
    frequency:   -4.6010628314
  - # 4
    frequency:    2.1263416717
  - # 5
    frequency:    4.2723787520
  - # 6
    frequency:    4.6808850624

- q-position: [    0.0300000,    0.0000000,    0.0000000 ]
  distance:    0.0091316
  band:
  - # 1
    frequency:   -6.3262335239
  - # 2
    frequency:   -6.1481052478
  - # 3
    frequency:   -4.6452187109
  - # 4
    frequency:    2.1313289450
  - # 5
    frequency:    4.2912330910
  - # 6
    frequency:    4.7172668020

- q-position: [    0.0400000,    0.0000000,    0.0000000 ]
  distance:    0.0121755
  band:
  - # 1
    frequency:   -6.3322308549
  - # 2
    frequency:   -6.1291780258
  - # 3
    frequency:   -4.7026574861
  - # 4
    frequency:    2.1395346639
  - # 5
    frequency:    4.3147031591
  - # 6
    frequency:    4.7729295372

- q-position: [    0.0500000,    0.0000000,    0.0000000 ]
  distance:    0.0152193
  band:
  - # 1
    frequency:   -6.3513712608
  - # 2
    frequency:   -6.0934155578
  - # 3
    frequency:   -4.7690564428
  - # 4
    frequency:    2.1520176905
  - # 5
    frequency:    4.3406106145
  - # 6
    frequency:    4.8517190689

- q-position: [    0.0600000,    0.0000000,    0.0000000 ]
  distance:    0.0182632
  band:
  - # 1
    frequency:   -6.3820180873
  - # 2
    frequency:   -6.0426145926
  - # 3
    frequency:   -4.8389286917
  - # 4
    frequency:    2.1699509078
  - # 5
    frequency:    4.3672690370
  - # 6
    frequency:    4.9572678819

- q-position: [    0.0700000,    0.0000000,    0.0000000 ]
  distance:    0.0213071
  band:
  - # 1
    frequency:   -6.4209736401
  - # 2
    frequency:   -5.9804117462
  - # 3
    frequency:   -4.9057057847
  - # 4
    frequency:    2.1945395362
  - # 5
    frequency:    4.3938618578
  - # 6
    frequency:    5.0924402565

- q-position: [    0.0800000,    0.0000000,    0.0000000 ]
  distance:    0.0243509
  band:
  - # 1
    frequency:   -6.4657847419
  - # 2
    frequency:   -5.9100920229
  - # 3
    frequency:   -4.9620071410
  - # 4
    frequency:    2.2269579152
  - # 5
    frequency:    4.4203513312
  - # 6
    frequency:    5.2591523008

- q-position: [    0.0900000,    0.0000000,    0.0000000 ]
  distance:    0.0273948
  band:
  - # 1
    frequency:   -6.5151508976
  - # 2
    frequency:   -5.8340401884
  - # 3
    frequency:   -5.0004095893
  - # 4
    frequency:    2.2683052910
  - # 5
    frequency:    4.4471420938
  - # 6
    frequency:    5.4583049883

- q-position: [    0.1000000,    0.0000000,    0.0000000 ]
  distance:    0.0304386
  band:
  - # 1
    frequency:   -6.5689773442
  - # 2
    frequency:   -5.7531346781
  - # 3
    frequency:   -5.0149703813
  - # 4
    frequency:    2.3195782578
  - # 5
    frequency:    4.4747865260
  - # 6
    frequency:    5.6895203870

- q-position: [    0.1100000,    0.0000000,    0.0000000 ]
  distance:    0.0334825
  band:
  - # 1
    frequency:   -6.6282584128
  - # 2
    frequency:   -5.6669125930
  - # 3
    frequency:   -5.0025145435
  - # 4
    frequency:    2.3816577587
  - # 5
    frequency:    4.5038283267
  - # 6
    frequency:    5.9506029753

- q-position: [    0.1200000,    0.0000000,    0.0000000 ]
  distance:    0.0365264
  band:
  - # 1
    frequency:   -6.6945481089
  - # 2
    frequency:   -5.5786140557
  - # 3
    frequency:   -4.9596019918
  - # 4
    frequency:    2.4553099240
  - # 5
    frequency:    4.5347527358
  - # 6
    frequency:    6.2368444705

- q-position: [    0.1300000,    0.0000000,    0.0000000 ]
  distance:    0.0395702
  band:
  - # 1
    frequency:   -6.7690993641
  - # 2
    frequency:   -5.5092325052
  - # 3
    frequency:   -4.8702777119
  - # 4
    frequency:    2.5411992548
  - # 5
    frequency:    4.5679932714
  - # 6
    frequency:    6.5404051032

- q-position: [    0.1400000,    0.0000000,    0.0000000 ]
  distance:    0.0426141
  band:
  - # 1
    frequency:   -7.0072559302
  - # 2
    frequency:   -6.3281935536
  - # 3
    frequency:   -5.0956692634
  - # 4
    frequency:    2.5860578966
  - # 5
    frequency:    4.5996911367
  - # 6
    frequency:    6.8240342173

- q-position: [    0.1500000,    0.0000000,    0.0000000 ]
  distance:    0.0456580
  band:
  - # 1
    frequency:   -7.2037666839
  - # 2
    frequency:   -6.5881001895
  - # 3
    frequency:   -5.3556181510
  - # 4
    frequency:    2.6622016716
  - # 5
    frequency:    4.6321128780
  - # 6
    frequency:    6.5008580742

- q-position: [    0.1600000,    0.0000000,    0.0000000 ]
  distance:    0.0487018
  band:
  - # 1
    frequency:   -7.4381214414
  - # 2
    frequency:   -6.7905299272
  - # 3
    frequency:   -5.5700872178
  - # 4
    frequency:    2.7486591166
  - # 5
    frequency:    4.6654148609
  - # 6
    frequency:    6.0999899191

- q-position: [    0.1700000,    0.0000000,    0.0000000 ]
  distance:    0.0517457
  band:
  - # 1
    frequency:   -7.6851133655
  - # 2
    frequency:   -6.9508116003
  - # 3
    frequency:   -5.7274870262
  - # 4
    frequency:    2.8410198565
  - # 5
    frequency:    4.6952131852
  - # 6
    frequency:    5.6345621963

- q-position: [    0.1800000,    0.0000000,    0.0000000 ]
  distance:    0.0547896
  band:
  - # 1
    frequency:   -7.9186220713
  - # 2
    frequency:   -7.0877892691
  - # 3
    frequency:   -5.8249443584
  - # 4
    frequency:    2.9324475168
  - # 5
    frequency:    4.6934802867
  - # 6
    frequency:    5.1471121288

- q-position: [    0.1900000,    0.0000000,    0.0000000 ]
  distance:    0.0578334
  band:
  - # 1
    frequency:   -8.1233575102
  - # 2
    frequency:   -7.2124390988
  - # 3
    frequency:   -5.8680036718
  - # 4
    frequency:    3.0078576535
  - # 5
    frequency:    4.4251306270
  - # 6
    frequency:    4.8955307994

- q-position: [    0.2000000,    0.0000000,    0.0000000 ]
  distance:    0.0608773
  band:
  - # 1
    frequency:   -8.2929748509
  - # 2
    frequency:   -7.3297412614
  - # 3
    frequency:   -5.8680782660
  - # 4
    frequency:    3.0125471012
  - # 5
    frequency:    3.9257388122
  - # 6
    frequency:    4.9023901050

- q-position: [    0.2100000,    0.0000000,    0.0000000 ]
  distance:    0.0639212
  band:
  - # 1
    frequency:   -8.4265459497
  - # 2
    frequency:   -7.4416892642
  - # 3
    frequency:   -5.8392187943
  - # 4
    frequency:    2.7400603820
  - # 5
    frequency:    3.6168586881
  - # 6
    frequency:    4.9454609402

- q-position: [    0.2200000,    0.0000000,    0.0000000 ]
  distance:    0.0669650
  band:
  - # 1
    frequency:   -8.5260953524
  - # 2
    frequency:   -7.5488854378
  - # 3
    frequency:   -5.7954636246
  - # 4
    frequency:    2.0895764369
  - # 5
    frequency:    3.5923141983
  - # 6
    frequency:    4.9981067082

- q-position: [    0.2300000,    0.0000000,    0.0000000 ]
  distance:    0.0700089
  band:
  - # 1
    frequency:   -8.5950508320
  - # 2
    frequency:   -7.6512140785
  - # 3
    frequency:   -5.7491503664
  - # 4
    frequency:    1.1067903140
  - # 5
    frequency:    3.6563281619
  - # 6
    frequency:    5.0557745773

- q-position: [    0.2400000,    0.0000000,    0.0000000 ]
  distance:    0.0730528
  band:
  - # 1
    frequency:   -8.6373903865
  - # 2
    frequency:   -7.7480565447
  - # 3
    frequency:   -5.7099682551
  - # 4
    frequency:   -1.1959463235
  - # 5
    frequency:    3.7397623678
  - # 6
    frequency:    5.1167230275

- q-position: [    0.2500000,    0.0000000,    0.0000000 ]
  distance:    0.0760966
  band:
  - # 1
    frequency:   -8.6573327187
  - # 2
    frequency:   -7.8382526999
  - # 3
    frequency:   -5.6844154255
  - # 4
    frequency:   -1.8737882962
  - # 5
    frequency:    3.8258978351
  - # 6
    frequency:    5.1797340046

- q-position: [    0.2600000,    0.0000000,    0.0000000 ]
  distance:    0.0791405
  band:
  - # 1
    frequency:   -8.6594667066
  - # 2
    frequency:   -7.9198464588
  - # 3
    frequency:   -5.6755050365
  - # 4
    frequency:   -2.2403340582
  - # 5
    frequency:    3.9090956600
  - # 6
    frequency:    5.2436150513

- q-position: [    0.2700000,    0.0000000,    0.0000000 ]
  distance:    0.0821843
  band:
  - # 1
    frequency:   -8.6492800236
  - # 2
    frequency:   -7.9895638406
  - # 3
    frequency:   -5.6827948599
  - # 4
    frequency:   -2.4465671245
  - # 5
    frequency:    3.9870176158
  - # 6
    frequency:    5.3070765310

- q-position: [    0.2800000,    0.0000000,    0.0000000 ]
  distance:    0.0852282
  band:
  - # 1
    frequency:   -8.6339973036
  - # 2
    frequency:   -8.0420419255
  - # 3
    frequency:   -5.7028573456
  - # 4
    frequency:   -2.5401599597
  - # 5
    frequency:    4.0586814064
  - # 6
    frequency:    5.3687346716

- q-position: [    0.2900000,    0.0000000,    0.0000000 ]
  distance:    0.0882721
  band:
  - # 1
    frequency:   -8.6229985527
  - # 2
    frequency:   -8.0694946356
  - # 3
    frequency:   -5.7300888312
  - # 4
    frequency:   -2.5415431813
  - # 5
    frequency:    4.1237886154
  - # 6
    frequency:    5.4271692076

- q-position: [    0.3000000,    0.0000000,    0.0000000 ]
  distance:    0.0913159
  band:
  - # 1
    frequency:   -8.6256546125
  - # 2
    frequency:   -8.0639557480
  - # 3
    frequency:   -5.7575276149
  - # 4
    frequency:   -2.4572047145
  - # 5
    frequency:    4.1824163928
  - # 6
    frequency:    5.4810021885

- q-position: [    0.3100000,    0.0000000,    0.0000000 ]
  distance:    0.0943598
  band:
  - # 1
    frequency:   -8.6460822868
  - # 2
    frequency:   -8.0225846692
  - # 3
    frequency:   -5.7774017577
  - # 4
    frequency:   -2.2818957380
  - # 5
    frequency:    4.2348439109
  - # 6
    frequency:    5.5289773593

- q-position: [    0.3200000,    0.0000000,    0.0000000 ]
  distance:    0.0974037
  band:
  - # 1
    frequency:   -8.6812855359
  - # 2
    frequency:   -7.9495604323
  - # 3
    frequency:   -5.7814077698
  - # 4
    frequency:   -1.9945256319
  - # 5
    frequency:    4.2814451323
  - # 6
    frequency:    5.5700280929

- q-position: [    0.3300000,    0.0000000,    0.0000000 ]
  distance:    0.1004475
  band:
  - # 1
    frequency:   -8.7254318726
  - # 2
    frequency:   -7.8518094965
  - # 3
    frequency:   -5.7609728225
  - # 4
    frequency:   -1.5370725679
  - # 5
    frequency:    4.3226231223
  - # 6
    frequency:    5.6033288071

- q-position: [    0.3400000,    0.0000000,    0.0000000 ]
  distance:    0.1034914
  band:
  - # 1
    frequency:   -8.7736208911
  - # 2
    frequency:   -7.7352196710
  - # 3
    frequency:   -5.7078291803
  - # 4
    frequency:   -0.6199696807
  - # 5
    frequency:    4.3587744433
  - # 6
    frequency:    5.6283295670

- q-position: [    0.3500000,    0.0000000,    0.0000000 ]
  distance:    0.1065353
  band:
  - # 1
    frequency:   -8.8226382367
  - # 2
    frequency:   -7.6038952752
  - # 3
    frequency:   -5.6151161447
  - # 4
    frequency:    1.3811849774
  - # 5
    frequency:    4.3902777851
  - # 6
    frequency:    5.6447758740

- q-position: [    0.3600000,    0.0000000,    0.0000000 ]
  distance:    0.1095791
  band:
  - # 1
    frequency:   -8.8705236120
  - # 2
    frequency:   -7.4607202610
  - # 3
    frequency:   -5.4789501048
  - # 4
    frequency:    2.1050404037
  - # 5
    frequency:    4.4175057132
  - # 6
    frequency:    5.6527158715

- q-position: [    0.3700000,    0.0000000,    0.0000000 ]
  distance:    0.1126230
  band:
  - # 1
    frequency:   -8.9160947618
  - # 2
    frequency:   -7.3081612526
  - # 3
    frequency:   -5.3000719528
  - # 4
    frequency:    2.6591306481
  - # 5
    frequency:    4.4408651254
  - # 6
    frequency:    5.6524959377

- q-position: [    0.3800000,    0.0000000,    0.0000000 ]
  distance:    0.1156669
  band:
  - # 1
    frequency:   -8.9586397405
  - # 2
    frequency:   -7.1490204812
  - # 3
    frequency:   -5.0849898287
  - # 4
    frequency:    3.1130594631
  - # 5
    frequency:    4.4608842304
  - # 6
    frequency:    5.6447435186

- q-position: [    0.3900000,    0.0000000,    0.0000000 ]
  distance:    0.1187107
  band:
  - # 1
    frequency:   -8.9977393526
  - # 2
    frequency:   -6.9869254474
  - # 3
    frequency:   -4.8460993541
  - # 4
    frequency:    3.4866154216
  - # 5
    frequency:    4.4783907361
  - # 6
    frequency:    5.6303340700

- q-position: [    0.4000000,    0.0000000,    0.0000000 ]
  distance:    0.1217546
  band:
  - # 1
    frequency:   -9.0339513047
  - # 2
    frequency:   -7.4706581393
  - # 3
    frequency:   -3.3817653296
  - # 4
    frequency:    4.4727090964
  - # 5
    frequency:    5.6011297164
  - # 6
    frequency:    7.4363883251

- q-position: [    0.4100000,    0.0000000,    0.0000000 ]
  distance:    0.1247985
  band:
  - # 1
    frequency:   -9.0654609971
  - # 2
    frequency:   -7.4650248341
  - # 3
    frequency:   -3.0795893199
  - # 4
    frequency:    4.4770461060
  - # 5
    frequency:    5.5746390403
  - # 6
    frequency:    7.0560338002

- q-position: [    0.4200000,    0.0000000,    0.0000000 ]
  distance:    0.1278423
  band:
  - # 1
    frequency:   -9.0931970768
  - # 2
    frequency:   -7.4497066481
  - # 3
    frequency:   -2.6932842401
  - # 4
    frequency:    4.4770866595
  - # 5
    frequency:    5.5447267849
  - # 6
    frequency:    6.6446302730

- q-position: [    0.4300000,    0.0000000,    0.0000000 ]
  distance:    0.1308862
  band:
  - # 1
    frequency:   -9.1172282037
  - # 2
    frequency:   -7.4208341360
  - # 3
    frequency:   -2.2282355296
  - # 4
    frequency:    4.4728797557
  - # 5
    frequency:    5.5124612276
  - # 6
    frequency:    6.2211584883

- q-position: [    0.4400000,    0.0000000,    0.0000000 ]
  distance:    0.1339300
  band:
  - # 1
    frequency:   -9.1376630013
  - # 2
    frequency:   -7.3791056478
  - # 3
    frequency:   -1.6766554183
  - # 4
    frequency:    4.4646011038
  - # 5
    frequency:    5.4770411294
  - # 6
    frequency:    5.8089959810

- q-position: [    0.4500000,    0.0000000,    0.0000000 ]
  distance:    0.1369739
  band:
  - # 1
    frequency:   -9.1546323007
  - # 2
    frequency:   -7.3286221129
  - # 3
    frequency:   -0.9745895346
  - # 4
    frequency:    4.4526951937
  - # 5
    frequency:    5.3803381596
  - # 6
    frequency:    5.4906513412

- q-position: [    0.4600000,    0.0000000,    0.0000000 ]
  distance:    0.1400178
  band:
  - # 1
    frequency:   -9.1682743625
  - # 2
    frequency:   -7.2753493540
  - # 3
    frequency:    0.7107303697
  - # 4
    frequency:    4.4381576406
  - # 5
    frequency:    5.0764823430
  - # 6
    frequency:    5.4364224497

- q-position: [    0.4700000,    0.0000000,    0.0000000 ]
  distance:    0.1430616
  band:
  - # 1
    frequency:   -9.1787222048
  - # 2
    frequency:   -7.2257275727
  - # 3
    frequency:    1.2251336423
  - # 4
    frequency:    4.4230588132
  - # 5
    frequency:    4.8208094185
  - # 6
    frequency:    5.4110229233

- q-position: [    0.4800000,    0.0000000,    0.0000000 ]
  distance:    0.1461055
  band:
  - # 1
    frequency:   -9.1860925048
  - # 2
    frequency:   -7.1856222330
  - # 3
    frequency:    1.4386874471
  - # 4
    frequency:    4.4111565937
  - # 5
    frequency:    4.6434541165
  - # 6
    frequency:    5.3930742040

- q-position: [    0.4900000,    0.0000000,    0.0000000 ]
  distance:    0.1491494
  band:
  - # 1
    frequency:   -9.1904761272
  - # 2
    frequency:   -7.1596238048
  - # 3
    frequency:    1.5244240584
  - # 4
    frequency:    4.4068998822
  - # 5
    frequency:    4.5399425835
  - # 6
    frequency:    5.3820905376

- q-position: [    0.5000000,    0.0000000,    0.0000000 ]
  distance:    0.1521932
  band:
  - # 1
    frequency:   -9.1919307460
  - # 2
    frequency:   -7.1888893947
  - # 3
    frequency:    1.5549123132
  - # 4
    frequency:    4.4081418807
  - # 5
    frequency:    4.6903286975
  - # 6
    frequency:    5.3783798906

- q-position: [    0.5000000,    0.0000000,    0.0000000 ]
  distance:    0.1521932
  band:
  - # 1
    frequency:   -9.1919307460
  - # 2
    frequency:   -7.1299870768
  - # 3
    frequency:    1.3034396464
  - # 4
    frequency:    4.3994164002
  - # 5
    frequency:    4.4081418807
  - # 6
    frequency:    5.3783798906

- q-position: [    0.5000000,    0.0100000,    0.0000000 ]
  distance:    0.1552371
  band:
  - # 1
    frequency:   -9.1890436325
  - # 2
    frequency:   -6.6846783303
  - # 3
    frequency:   -5.3334301773
  - # 4
    frequency:    4.4056427650
  - # 5
    frequency:    4.9808875392
  - # 6
    frequency:    5.3761602959

- q-position: [    0.5000000,    0.0200000,    0.0000000 ]
  distance:    0.1582810
  band:
  - # 1
    frequency:   -9.1803937771
  - # 2
    frequency:   -6.6826979872
  - # 3
    frequency:   -5.3306301491
  - # 4
    frequency:    4.3981825265
  - # 5
    frequency:    5.0114565256
  - # 6
    frequency:    5.3695856613

- q-position: [    0.5000000,    0.0300000,    0.0000000 ]
  distance:    0.1613248
  band:
  - # 1
    frequency:   -9.1660154737
  - # 2
    frequency:   -6.6795539512
  - # 3
    frequency:   -5.3261159609
  - # 4
    frequency:    4.3858500309
  - # 5
    frequency:    5.0618509016
  - # 6
    frequency:    5.3589728381

- q-position: [    0.5000000,    0.0400000,    0.0000000 ]
  distance:    0.1643687
  band:
  - # 1
    frequency:   -9.1459653521
  - # 2
    frequency:   -6.6755161393
  - # 3
    frequency:   -5.3200958405
  - # 4
    frequency:    4.3687403240
  - # 5
    frequency:    5.1308809050
  - # 6
    frequency:    5.3452609531

- q-position: [    0.5000000,    0.0500000,    0.0000000 ]
  distance:    0.1674126
  band:
  - # 1
    frequency:   -9.1203216111
  - # 2
    frequency:   -6.6710365686
  - # 3
    frequency:   -5.3128165978
  - # 4
    frequency:    4.3469223794
  - # 5
    frequency:    5.2138018584
  - # 6
    frequency:    5.3329208304

- q-position: [    0.5000000,    0.0600000,    0.0000000 ]
  distance:    0.1704564
  band:
  - # 1
    frequency:   -9.0891829967
  - # 2
    frequency:   -6.6668323089
  - # 3
    frequency:   -5.3045110304
  - # 4
    frequency:    4.3204331622
  - # 5
    frequency:    5.2695733650
  - # 6
    frequency:    5.3627162866

- q-position: [    0.5000000,    0.0700000,    0.0000000 ]
  distance:    0.1735003
  band:
  - # 1
    frequency:   -9.0526675761
  - # 2
    frequency:   -6.6640037811
  - # 3
    frequency:   -5.2953204505
  - # 4
    frequency:    4.2892892670
  - # 5
    frequency:    5.2574027707
  - # 6
    frequency:    5.4751697316

- q-position: [    0.5000000,    0.0800000,    0.0000000 ]
  distance:    0.1765442
  band:
  - # 1
    frequency:   -9.0109113806
  - # 2
    frequency:   -6.6641947508
  - # 3
    frequency:   -5.2851880149
  - # 4
    frequency:    4.2535045715
  - # 5
    frequency:    5.2298728243
  - # 6
    frequency:    5.6174444331

- q-position: [    0.5000000,    0.0900000,    0.0000000 ]
  distance:    0.1795880
  band:
  - # 1
    frequency:   -8.9640670093
  - # 2
    frequency:   -6.6697973134
  - # 3
    frequency:   -5.2737226439
  - # 4
    frequency:    4.2131081118
  - # 5
    frequency:    5.1974233557
  - # 6
    frequency:    5.7788791711

- q-position: [    0.5000000,    0.1000000,    0.0000000 ]
  distance:    0.1826319
  band:
  - # 1
    frequency:   -8.9123023113
  - # 2
    frequency:   -6.6841965467
  - # 3
    frequency:   -5.2600430794
  - # 4
    frequency:    4.1681609800
  - # 5
    frequency:    5.1618973067
  - # 6
    frequency:    5.9574638252

- q-position: [    0.5000000,    0.1100000,    0.0000000 ]
  distance:    0.1856757
  band:
  - # 1
    frequency:   -8.8557992927
  - # 2
    frequency:   -6.7120332553
  - # 3
    frequency:   -5.2426289706
  - # 4
    frequency:    4.1187726685
  - # 5
    frequency:    5.1241320638
  - # 6
    frequency:    6.1522685458

- q-position: [    0.5000000,    0.1200000,    0.0000000 ]
  distance:    0.1887196
  band:
  - # 1
    frequency:   -8.7947534273
  - # 2
    frequency:   -6.7594431261
  - # 3
    frequency:   -5.2192265937
  - # 4
    frequency:    4.0651172116
  - # 5
    frequency:    5.0847393397
  - # 6
    frequency:    6.3626708664

- q-position: [    0.5000000,    0.1300000,    0.0000000 ]
  distance:    0.1917635
  band:
  - # 1
    frequency:   -8.7293735897
  - # 2
    frequency:   -6.8342248418
  - # 3
    frequency:   -5.1868618520
  - # 4
    frequency:    4.0074488622
  - # 5
    frequency:    5.0442517791
  - # 6
    frequency:    6.5881807365

- q-position: [    0.5000000,    0.1400000,    0.0000000 ]
  distance:    0.1948073
  band:
  - # 1
    frequency:   -8.6598828804
  - # 2
    frequency:   -6.9459280463
  - # 3
    frequency:   -5.1419706466
  - # 4
    frequency:    3.9461164702
  - # 5
    frequency:    5.0031578983
  - # 6
    frequency:    6.8283035258

- q-position: [    0.5000000,    0.1500000,    0.0000000 ]
  distance:    0.1978512
  band:
  - # 1
    frequency:   -8.5865206979
  - # 2
    frequency:   -7.1059369235
  - # 3
    frequency:   -5.0805593821
  - # 4
    frequency:    3.8815753722
  - # 5
    frequency:    4.9619096496
  - # 6
    frequency:    7.0822886950

- q-position: [    0.5000000,    0.1600000,    0.0000000 ]
  distance:    0.2008951
  band:
  - # 1
    frequency:   -8.5104042817
  - # 2
    frequency:   -8.2236154270
  - # 3
    frequency:   -6.0865738064
  - # 4
    frequency:    3.8146072680
  - # 5
    frequency:    4.9213233422
  - # 6
    frequency:    9.1603161634

- q-position: [    0.5000000,    0.1700000,    0.0000000 ]
  distance:    0.2039389
  band:
  - # 1
    frequency:   -8.4331836827
  - # 2
    frequency:   -8.3875886503
  - # 3
    frequency:   -6.2094588618
  - # 4
    frequency:    3.7443853108
  - # 5
    frequency:    4.8806352558
  - # 6
    frequency:    8.8645741527

- q-position: [    0.5000000,    0.1800000,    0.0000000 ]
  distance:    0.2069828
  band:
  - # 1
    frequency:   -8.5330628806
  - # 2
    frequency:   -8.3457759417
  - # 3
    frequency:   -6.3690043243
  - # 4
    frequency:    3.6727683971
  - # 5
    frequency:    4.8409498176
  - # 6
    frequency:    8.4791954943

- q-position: [    0.5000000,    0.1900000,    0.0000000 ]
  distance:    0.2100267
  band:
  - # 1
    frequency:   -8.6171925221
  - # 2
    frequency:   -8.2604258129
  - # 3
    frequency:   -6.5715022803
  - # 4
    frequency:    3.6006010074
  - # 5
    frequency:    4.8025579519
  - # 6
    frequency:    7.9820865900

- q-position: [    0.5000000,    0.2000000,    0.0000000 ]
  distance:    0.2130705
  band:
  - # 1
    frequency:   -8.5987361367
  - # 2
    frequency:   -8.1726417676
  - # 3
    frequency:   -6.8204017034
  - # 4
    frequency:    3.5287534297
  - # 5
    frequency:    4.7656980391
  - # 6
    frequency:    7.3475040348

- q-position: [    0.5000000,    0.2100000,    0.0000000 ]
  distance:    0.2161144
  band:
  - # 1
    frequency:   -8.4118840791
  - # 2
    frequency:   -8.0828900417
  - # 3
    frequency:   -7.1089426943
  - # 4
    frequency:    3.4579687988
  - # 5
    frequency:    4.7304896452
  - # 6
    frequency:    6.5488773267

- q-position: [    0.5000000,    0.2200000,    0.0000000 ]
  distance:    0.2191583
  band:
  - # 1
    frequency:   -8.0315588044
  - # 2
    frequency:   -7.9611714706
  - # 3
    frequency:   -7.3719077389
  - # 4
    frequency:    3.3883020186
  - # 5
    frequency:    4.6963358705
  - # 6
    frequency:    5.5679823946

- q-position: [    0.5000000,    0.2300000,    0.0000000 ]
  distance:    0.2222021
  band:
  - # 1
    frequency:   -7.9657022311
  - # 2
    frequency:   -7.8428481833
  - # 3
    frequency:   -6.8716160404
  - # 4
    frequency:    3.3152689114
  - # 5
    frequency:    4.4080747460
  - # 6
    frequency:    4.6777894193

- q-position: [    0.5000000,    0.2400000,    0.0000000 ]
  distance:    0.2252460
  band:
  - # 1
    frequency:   -8.1649486785
  - # 2
    frequency:   -7.7950575558
  - # 3
    frequency:   -5.3077505806
  - # 4
    frequency:    3.1299182891
  - # 5
    frequency:    3.4208548447
  - # 6
    frequency:    4.6424866677

- q-position: [    0.5000000,    0.2500000,    0.0000000 ]
  distance:    0.2282899
  band:
  - # 1
    frequency:   -8.3119366404
  - # 2
    frequency:   -7.7079125678
  - # 3
    frequency:   -3.4721823727
  - # 4
    frequency:    3.2111601838
  - # 5
    frequency:    3.9378131915
  - # 6
    frequency:    4.6172653747

- q-position: [    0.5000000,    0.2600000,    0.0000000 ]
  distance:    0.2313337
  band:
  - # 1
    frequency:   -8.0817609471
  - # 2
    frequency:   -7.6126132374
  - # 3
    frequency:   -3.7905239580
  - # 4
    frequency:    3.1673835798
  - # 5
    frequency:    4.3441891752
  - # 6
    frequency:    4.5977730778

- q-position: [    0.5000000,    0.2700000,    0.0000000 ]
  distance:    0.2343776
  band:
  - # 1
    frequency:   -8.0626129152
  - # 2
    frequency:   -7.5248814407
  - # 3
    frequency:   -5.0278826272
  - # 4
    frequency:    3.0942023978
  - # 5
    frequency:    3.5299915353
  - # 6
    frequency:    4.5749700008

- q-position: [    0.5000000,    0.2800000,    0.0000000 ]
  distance:    0.2374215
  band:
  - # 1
    frequency:   -8.0586852948
  - # 2
    frequency:   -7.4415671248
  - # 3
    frequency:   -6.0241687265
  - # 4
    frequency:    2.4974354712
  - # 5
    frequency:    3.1365567925
  - # 6
    frequency:    4.5579411807

- q-position: [    0.5000000,    0.2900000,    0.0000000 ]
  distance:    0.2404653
  band:
  - # 1
    frequency:   -8.0647441637
  - # 2
    frequency:   -7.3675021203
  - # 3
    frequency:   -6.7647976159
  - # 4
    frequency:    1.5060649506
  - # 5
    frequency:    3.0901145981
  - # 6
    frequency:    4.5442518092

- q-position: [    0.5000000,    0.3000000,    0.0000000 ]
  distance:    0.2435092
  band:
  - # 1
    frequency:   -8.0799963137
  - # 2
    frequency:   -7.3721999131
  - # 3
    frequency:   -7.1898108963
  - # 4
    frequency:    0.2754419390
  - # 5
    frequency:    3.0639377444
  - # 6
    frequency:    4.5336706654

- q-position: [    0.5000000,    0.3100000,    0.0000000 ]
  distance:    0.2465530
  band:
  - # 1
    frequency:   -8.1187463411
  - # 2
    frequency:   -7.6019989634
  - # 3
    frequency:   -7.1803688319
  - # 4
    frequency:   -0.7901220391
  - # 5
    frequency:    3.0464695329
  - # 6
    frequency:    4.5260606124

- q-position: [    0.5000000,    0.3200000,    0.0000000 ]
  distance:    0.2495969
  band:
  - # 1
    frequency:   -8.1938266671
  - # 2
    frequency:   -7.7162803241
  - # 3
    frequency:   -7.1170005844
  - # 4
    frequency:   -0.6001067655
  - # 5
    frequency:    3.0360991382
  - # 6
    frequency:    4.5212590267

- q-position: [    0.5000000,    0.3300000,    0.0000000 ]
  distance:    0.2526408
  band:
  - # 1
    frequency:   -8.2790557078
  - # 2
    frequency:   -7.7339596833
  - # 3
    frequency:   -7.0527446137
  - # 4
    frequency:    0.6380532451
  - # 5
    frequency:    3.0326922598
  - # 6
    frequency:    4.5190561288

- q-position: [    0.5000000,    0.3400000,    0.0000000 ]
  distance:    0.2556846
  band:
  - # 1
    frequency:   -8.3487152408
  - # 2
    frequency:   -7.7106782048
  - # 3
    frequency:   -6.9908889030
  - # 4
    frequency:    1.1651290706
  - # 5
    frequency:    3.0367200733
  - # 6
    frequency:    4.5191929084

- q-position: [    0.5000000,    0.3500000,    0.0000000 ]
  distance:    0.2587285
  band:
  - # 1
    frequency:   -8.3994883694
  - # 2
    frequency:   -7.6714625016
  - # 3
    frequency:   -6.9317551878
  - # 4
    frequency:    1.5151190123
  - # 5
    frequency:    3.0488956643
  - # 6
    frequency:    4.5213667812

- q-position: [    0.5000000,    0.3600000,    0.0000000 ]
  distance:    0.2617724
  band:
  - # 1
    frequency:   -8.4354927962
  - # 2
    frequency:   -7.6265762331
  - # 3
    frequency:   -6.8749973799
  - # 4
    frequency:    1.7648939781
  - # 5
    frequency:    3.0696690168
  - # 6
    frequency:    4.5252418714

- q-position: [    0.5000000,    0.3700000,    0.0000000 ]
  distance:    0.2648162
  band:
  - # 1
    frequency:   -8.4610946007
  - # 2
    frequency:   -7.5810481689
  - # 3
    frequency:   -6.8200597287
  - # 4
    frequency:    1.9415066627
  - # 5
    frequency:    3.0985677251
  - # 6
    frequency:    4.5304625546

- q-position: [    0.5000000,    0.3800000,    0.0000000 ]
  distance:    0.2678601
  band:
  - # 1
    frequency:   -8.4795340521
  - # 2
    frequency:   -7.5377812442
  - # 3
    frequency:   -6.7664050549
  - # 4
    frequency:    2.0626029488
  - # 5
    frequency:    3.1337760039
  - # 6
    frequency:    4.5366689676

- q-position: [    0.5000000,    0.3900000,    0.0000000 ]
  distance:    0.2709040
  band:
  - # 1
    frequency:   -8.4930062664
  - # 2
    frequency:   -7.4985554725
  - # 3
    frequency:   -6.7136859951
  - # 4
    frequency:    2.1423186299
  - # 5
    frequency:    3.1724219105
  - # 6
    frequency:    4.5435127183

- q-position: [    0.5000000,    0.4000000,    0.0000000 ]
  distance:    0.2739478
  band:
  - # 1
    frequency:   -8.5029634440
  - # 2
    frequency:   -7.4643772052
  - # 3