mesh: [    10,    10,    10 ]
nqpoint: 35     
natom:   8      
phonon:
- q-position: [    0.0500000,    0.0500000,    0.0500000 ]
  weight: 8    
  band:
  - # 1
    frequency:    -7.5765152376
    eigenvector:
    - # atom 1
      - [ -0.00347667667328,  0.00000000000000 ]
      - [  0.05032238110543,  0.00000000000000 ]
      - [ -0.03721552921042,  0.00000000000000 ]
    - # atom 2
      - [  0.16337670411152,  0.00000000000000 ]
      - [ -0.04198777342088, -0.00000000000000 ]
      - [ -0.29387779703890,  0.00000000000000 ]
    - # atom 3
      - [  0.38372004139796, -0.00000000000000 ]
      - [ -0.60162475968184, -0.00000000000000 ]
      - [  0.11010798967037, -0.00000000000000 ]
    - # atom 4
      - [ -0.32575287816227,  0.00000000000000 ]
      - [ -0.01220764093324,  0.00000000000000 ]
      - [  0.02149354783304, -0.00000000000000 ]
    - # atom 5
      - [  0.15619993340098, -0.00000000000000 ]
      - [ -0.04169841573022,  0.00000000000000 ]
      - [ -0.08446501909329,  0.00000000000000 ]
    - # atom 6
      - [ -0.01597640995463,  0.00000000000000 ]
      - [ -0.12434042171694, -0.00000000000000 ]
      - [  0.09177107624990,  0.00000000000000 ]
    - # atom 7
      - [ -0.03734745806824,  0.00000000000000 ]
      - [  0.13420704620067, -0.00000000000000 ]
      - [ -0.36074598326262, -0.00000000000000 ]
    - # atom 8
      - [  0.04670810850334,  0.00000000000000 ]
      - [ -0.17884645369435,  0.00000000000000 ]
      - [ -0.10994273211206, -0.00000000000000 ]
  - # 2
    frequency:    -7.5473436948
    eigenvector:
    - # atom 1
      - [ -0.00064365970085,  0.00000000000000 ]
      - [  0.03264806424689,  0.00000000000000 ]
      - [  0.26036434825167, -0.00000000000000 ]
    - # atom 2
      - [  0.03796321589154,  0.00000000000000 ]
      - [ -0.08700075075165,  0.00000000000000 ]
      - [ -0.11541608756287,  0.00000000000000 ]
    - # atom 3
      - [  0.02570343473842,  0.00000000000000 ]
      - [ -0.12946413920566,  0.00000000000000 ]
      - [  0.08932117722853,  0.00000000000000 ]
    - # atom 4
      - [  0.09909526690590, -0.00000000000000 ]
      - [ -0.13406055169406,  0.00000000000000 ]
      - [ -0.24982728476198, -0.00000000000000 ]
    - # atom 5
      - [ -0.24553901500430, -0.00000000000000 ]
      - [  0.13923094227364, -0.00000000000000 ]
      - [  0.17023198894695,  0.00000000000000 ]
    - # atom 6
      - [ -0.06681862456995, -0.00000000000000 ]
      - [ -0.53065387635922, -0.00000000000000 ]
      - [  0.22814539104076,  0.00000000000000 ]
    - # atom 7
      - [  0.12920824975226,  0.00000000000000 ]
      - [ -0.22757891495751,  0.00000000000000 ]
      - [  0.06510473072095, -0.00000000000000 ]
    - # atom 8
      - [ -0.02213342554061,  0.00000000000000 ]
      - [  0.48838413289757, -0.00000000000000 ]
      - [ -0.18630759507287,  0.00000000000000 ]
  - # 3
    frequency:    -7.2768728722
    eigenvector:
    - # atom 1
      - [  0.00015598629948,  0.00000000000000 ]
      - [  0.03506211829802,  0.00000000000000 ]
      - [ -0.03271456470315,  0.00000000000000 ]
    - # atom 2
      - [  0.12113919762854,  0.00000000000000 ]
      - [  0.05724048749063, -0.00000000000000 ]
      - [  0.06186148251615,  0.00000000000000 ]
    - # atom 3
      - [  0.23568429532091,  0.00000000000000 ]
      - [  0.08338835709014,  0.00000000000000 ]
      - [  0.23606703663063, -0.00000000000000 ]
    - # atom 4
      - [  0.09692526649492,  0.00000000000000 ]
      - [ -0.07948025821746,  0.00000000000000 ]
      - [  0.02579433535502,  0.00000000000000 ]
    - # atom 5
      - [ -0.37687741616393, -0.00000000000000 ]
      - [ -0.17729130076311, -0.00000000000000 ]
      - [ -0.21906943453609, -0.00000000000000 ]
    - # atom 6
      - [ -0.09427326650580,  0.00000000000000 ]
      - [  0.07720372863295,  0.00000000000000 ]
      - [ -0.07785528435129, -0.00000000000000 ]
    - # atom 7
      - [ -0.10751144088879, -0.00000000000000 ]
      - [ -0.08122208285894, -0.00000000000000 ]
      - [  0.29840645074389,  0.00000000000000 ]
    - # atom 8
      - [  0.19848585269205, -0.00000000000000 ]
      - [ -0.26283957122948, -0.00000000000000 ]
      - [ -0.61908327568116, -0.00000000000000 ]
  - # 4
    frequency:    -7.1821977971
    eigenvector:
    - # atom 1
      - [ -0.03124369081436,  0.00000000000000 ]
      - [  0.37460162411156,  0.00000000000000 ]
      - [  0.01757174905291, -0.00000000000000 ]
    - # atom 2
      - [  0.28328846015647,  0.00000000000000 ]
      - [ -0.22500674315562,  0.00000000000000 ]
      - [ -0.15099230060130,  0.00000000000000 ]
    - # atom 3
      - [ -0.05164092045185, -0.00000000000000 ]
      - [  0.05631134637750,  0.00000000000000 ]
      - [ -0.22055755766166, -0.00000000000000 ]
    - # atom 4
      - [  0.16433888117061, -0.00000000000000 ]
      - [  0.16962687474221,  0.00000000000000 ]
      - [ -0.45787352410954, -0.00000000000000 ]
    - # atom 5
      - [  0.11404883235021,  0.00000000000000 ]
      - [ -0.03321501693472,  0.00000000000000 ]
      - [ -0.28785404800463, -0.00000000000000 ]
    - # atom 6
      - [ -0.30052350980308, -0.00000000000000 ]
      - [  0.22748093160915, -0.00000000000000 ]
      - [ -0.06883348038416, -0.00000000000000 ]
    - # atom 7
      - [  0.32658381437738,  0.00000000000000 ]
      - [  0.15357333482916,  0.00000000000000 ]
      - [ -0.02456567563625, -0.00000000000000 ]
    - # atom 8
      - [  0.02642661486050,  0.00000000000000 ]
      - [  0.07696845252681, -0.00000000000000 ]
      - [ -0.05966124131546, -0.00000000000000 ]
  - # 5
    frequency:    -7.1264378770
    eigenvector:
    - # atom 1
      - [  0.04303370898657,  0.00000000000000 ]
      - [ -0.41207228913227,  0.00000000000000 ]
      - [ -0.30254375608434, -0.00000000000000 ]
    - # atom 2
      - [ -0.27102834949767, -0.00000000000000 ]
      - [ -0.41151943866509,  0.00000000000000 ]
      - [  0.11506074247115, -0.00000000000000 ]
    - # atom 3
      - [  0.20545372861920,  0.00000000000000 ]
      - [ -0.10034804946815, -0.00000000000000 ]
      - [ -0.23529164616533,  0.00000000000000 ]
    - # atom 4
      - [  0.02385184124503, -0.00000000000000 ]
      - [ -0.17353350921821,  0.00000000000000 ]
      - [ -0.28559113712988, -0.00000000000000 ]
    - # atom 5
      - [ -0.23045549508660,  0.00000000000000 ]
      - [  0.01360478351484, -0.00000000000000 ]
      - [ -0.26008604848123,  0.00000000000000 ]
    - # atom 6
      - [  0.24675304382855, -0.00000000000000 ]
      - [  0.07488696156892, -0.00000000000000 ]
      - [ -0.00666997830119, -0.00000000000000 ]
    - # atom 7
      - [  0.15930391136881,  0.00000000000000 ]
      - [ -0.10328493686575, -0.00000000000000 ]
      - [ -0.06210031261119,  0.00000000000000 ]
    - # atom 8
      - [ -0.18083570275296,  0.00000000000000 ]
      - [ -0.02554874011650, -0.00000000000000 ]
      - [  0.01202343169802, -0.00000000000000 ]
  - # 6
    frequency:    -7.0607324940
    eigenvector:
    - # atom 1
      - [ -0.02714429940769,  0.00000000000000 ]
      - [  0.20916022053425,  0.00000000000000 ]
      - [  0.14307733896925, -0.00000000000000 ]
    - # atom 2
      - [  0.17195985989698, -0.00000000000000 ]
      - [ -0.38652317787961,  0.00000000000000 ]
      - [  0.12202427501500, -0.00000000000000 ]
    - # atom 3
      - [  0.10665600843227, -0.00000000000000 ]
      - [  0.06842573523369, -0.00000000000000 ]
      - [ -0.11761226456806,  0.00000000000000 ]
    - # atom 4
      - [ -0.15115697836594, -0.00000000000000 ]
      - [ -0.36584113568304,  0.00000000000000 ]
      - [  0.31893510048852,  0.00000000000000 ]
    - # atom 5
      - [ -0.30961140613546,  0.00000000000000 ]
      - [  0.20997872259076, -0.00000000000000 ]
      - [  0.04608375968412,  0.00000000000000 ]
    - # atom 6
      - [ -0.18540347291852, -0.00000000000000 ]
      - [ -0.03707248322142, -0.00000000000000 ]
      - [  0.06575836479215, -0.00000000000000 ]
    - # atom 7
      - [ -0.03587301064262,  0.00000000000000 ]
      - [  0.40508008215683, -0.00000000000000 ]
      - [  0.15841525032499,  0.00000000000000 ]
    - # atom 8
      - [ -0.17607915576684,  0.00000000000000 ]
      - [ -0.09932677440315,  0.00000000000000 ]
      - [  0.19848674858014,  0.00000000000000 ]
  - # 7
    frequency:    -6.7553853924
    eigenvector:
    - # atom 1
      - [  0.03617519802956,  0.00000000000000 ]
      - [ -0.18308944813281, -0.00000000000000 ]
      - [ -0.24611222004773,  0.00000000000000 ]
    - # atom 2
      - [  0.10998141018831,  0.00000000000000 ]
      - [ -0.15674977262293, -0.00000000000000 ]
      - [ -0.40940085642164,  0.00000000000000 ]
    - # atom 3
      - [  0.03309140557301,  0.00000000000000 ]
      - [  0.11631217701710,  0.00000000000000 ]
      - [  0.07129756753010,  0.00000000000000 ]
    - # atom 4
      - [  0.44001454917620, -0.00000000000000 ]
      - [  0.07759842545503,  0.00000000000000 ]
      - [  0.20146520251160, -0.00000000000000 ]
    - # atom 5
      - [  0.11058828045008, -0.00000000000000 ]
      - [  0.49148064805104,  0.00000000000000 ]
      - [  0.06842443500944,  0.00000000000000 ]
    - # atom 6
      - [  0.10890935632708, -0.00000000000000 ]
      - [ -0.08421971555154, -0.00000000000000 ]
      - [  0.14197259579220,  0.00000000000000 ]
    - # atom 7
      - [  0.12714331294048,  0.00000000000000 ]
      - [  0.09232443654346, -0.00000000000000 ]
      - [  0.06629181590849, -0.00000000000000 ]
    - # atom 8
      - [  0.28197553517686,  0.00000000000000 ]
      - [ -0.18397613075922,  0.00000000000000 ]
      - [ -0.01941378342023, -0.00000000000000 ]
  - # 8
    frequency:    -6.5668437235
    eigenvector:
    - # atom 1
      - [ -0.03585802586575,  0.00000000000000 ]
      - [  0.19448106557640,  0.00000000000000 ]
      - [ -0.37883792995074,  0.00000000000000 ]
    - # atom 2
      - [ -0.14747163385619, -0.00000000000000 ]
      - [  0.11399460362369,  0.00000000000000 ]
      - [  0.26608215616973, -0.00000000000000 ]
    - # atom 3
      - [ -0.16835996901852,  0.00000000000000 ]
      - [ -0.23336600846440, -0.00000000000000 ]
      - [  0.32319989702446, -0.00000000000000 ]
    - # atom 4
      - [  0.08887227273321,  0.00000000000000 ]
      - [  0.24445543378254, -0.00000000000000 ]
      - [ -0.12928698509883,  0.00000000000000 ]
    - # atom 5
      - [ -0.29130528363939, -0.00000000000000 ]
      - [  0.22547299404257,  0.00000000000000 ]
      - [ -0.16013637653289,  0.00000000000000 ]
    - # atom 6
      - [ -0.22452268538847, -0.00000000000000 ]
      - [  0.04720142189749, -0.00000000000000 ]
      - [  0.38921624214718,  0.00000000000000 ]
    - # atom 7
      - [ -0.17110806268480,  0.00000000000000 ]
      - [  0.07149340778994, -0.00000000000000 ]
      - [ -0.05523098453602, -0.00000000000000 ]
    - # atom 8
      - [ -0.02992197775640,  0.00000000000000 ]
      - [ -0.00443455878191,  0.00000000000000 ]
      - [  0.19071717918991, -0.00000000000000 ]
  - # 9
    frequency:    -6.3566497094
    eigenvector:
    - # atom 1
      - [  0.02783746439420,  0.00000000000000 ]
      - [ -0.08822531367539, -0.00000000000000 ]
      - [  0.02646575706064,  0.00000000000000 ]
    - # atom 2
      - [  0.19150416391166, -0.00000000000000 ]
      - [  0.00139641718385, -0.00000000000000 ]
      - [ -0.06490651712661,  0.00000000000000 ]
    - # atom 3
      - [ -0.17516063399090, -0.00000000000000 ]
      - [  0.16457806798963, -0.00000000000000 ]
      - [  0.20077855758510, -0.00000000000000 ]
    - # atom 4
      - [ -0.14838889210939,  0.00000000000000 ]
      - [ -0.22190530894487, -0.00000000000000 ]
      - [ -0.12276318271066, -0.00000000000000 ]
    - # atom 5
      - [ -0.02025163900756,  0.00000000000000 ]
      - [ -0.42625153506072,  0.00000000000000 ]
      - [ -0.19959565031930,  0.00000000000000 ]
    - # atom 6
      - [  0.20026743869072, -0.00000000000000 ]
      - [ -0.13902978754482, -0.00000000000000 ]
      - [  0.41951161258610,  0.00000000000000 ]
    - # atom 7
      - [  0.22060832484110,  0.00000000000000 ]
      - [  0.04823692739638, -0.00000000000000 ]
      - [  0.10491445948033, -0.00000000000000 ]
    - # atom 8
      - [  0.32453694984313, -0.00000000000000 ]
      - [ -0.16008596279993,  0.00000000000000 ]
      - [  0.33929657516075, -0.00000000000000 ]
  - # 10
    frequency:    -6.0320686910
    eigenvector:
    - # atom 1
      - [ -0.06707028744798,  0.00000000000000 ]
      - [  0.25283795988102, -0.00000000000000 ]
      - [ -0.31737809522542,  0.00000000000000 ]
    - # atom 2
      - [ -0.36799409895487, -0.00000000000000 ]
      - [ -0.06902198191245, -0.00000000000000 ]
      - [ -0.32520569987284,  0.00000000000000 ]
    - # atom 3
      - [ -0.14051186846812, -0.00000000000000 ]
      - [  0.17778424953952,  0.00000000000000 ]
      - [ -0.16959967787630, -0.00000000000000 ]
    - # atom 4
      - [ -0.10590708221667, -0.00000000000000 ]
      - [ -0.33253018208191, -0.00000000000000 ]
      - [  0.07001206829626, -0.00000000000000 ]
    - # atom 5
      - [  0.14966453417461, -0.00000000000000 ]
      - [ -0.09677103913701,  0.00000000000000 ]
      - [ -0.07499733600750, -0.00000000000000 ]
    - # atom 6
      - [ -0.37995564715482, -0.00000000000000 ]
      - [ -0.20395324456606, -0.00000000000000 ]
      - [  0.05583669662053, -0.00000000000000 ]
    - # atom 7
      - [ -0.14813490978534, -0.00000000000000 ]
      - [ -0.32143505716162,  0.00000000000000 ]
      - [ -0.03404982006276, -0.00000000000000 ]
    - # atom 8
      - [ -0.01444768185972, -0.00000000000000 ]
      - [ -0.15145839761841,  0.00000000000000 ]
      - [ -0.04530087188609, -0.00000000000000 ]
  - # 11
    frequency:    -5.8304642085
    eigenvector:
    - # atom 1
      - [ -0.01862456717465,  0.00000000000000 ]
      - [  0.00886845136809, -0.00000000000000 ]
      - [  0.11864302572105, -0.00000000000000 ]
    - # atom 2
      - [ -0.11235582464520,  0.00000000000000 ]
      - [ -0.43460421650658, -0.00000000000000 ]
      - [ -0.18931933202109, -0.00000000000000 ]
    - # atom 3
      - [ -0.13841130426038,  0.00000000000000 ]
      - [  0.06098587545430,  0.00000000000000 ]
      - [  0.45255928245369, -0.00000000000000 ]
    - # atom 4
      - [ -0.23006100344433, -0.00000000000000 ]
      - [  0.34080666515959,  0.00000000000000 ]
      - [ -0.14203070859737,  0.00000000000000 ]
    - # atom 5
      - [  0.02524984677098, -0.00000000000000 ]
      - [ -0.03254960449433,  0.00000000000000 ]
      - [  0.23935853047899, -0.00000000000000 ]
    - # atom 6
      - [  0.02299655444033,  0.00000000000000 ]
      - [  0.00969764088975,  0.00000000000000 ]
      - [ -0.07906639321016, -0.00000000000000 ]
    - # atom 7
      - [  0.07333337039345, -0.00000000000000 ]
      - [ -0.12488223401439, -0.00000000000000 ]
      - [  0.20728582409432, -0.00000000000000 ]
    - # atom 8
      - [ -0.33266103700376, -0.00000000000000 ]
      - [ -0.30122971382906,  0.00000000000000 ]
      - [ -0.00275853203256, -0.00000000000000 ]
  - # 12
    frequency:    -5.2499602678
    eigenvector:
    - # atom 1
      - [ -0.00000727324053,  0.00000000000000 ]
      - [ -0.05035231369690, -0.00000000000000 ]
      - [  0.19337171792721,  0.00000000000000 ]
    - # atom 2
      - [  0.04630244295070, -0.00000000000000 ]
      - [  0.21079067133711, -0.00000000000000 ]
      - [ -0.08346515424942,  0.00000000000000 ]
    - # atom 3
      - [ -0.49332039266453, -0.00000000000000 ]
      - [ -0.05646453347264,  0.00000000000000 ]
      - [  0.17692974324426,  0.00000000000000 ]
    - # atom 4
      - [  0.03033561318851,  0.00000000000000 ]
      - [ -0.31564375636218, -0.00000000000000 ]
      - [  0.06010005545675,  0.00000000000000 ]
    - # atom 5
      - [ -0.01407471303755,  0.00000000000000 ]
      - [  0.25417348059514,  0.00000000000000 ]
      - [ -0.36208882567923, -0.00000000000000 ]
    - # atom 6
      - [  0.13877199221527,  0.00000000000000 ]
      - [  0.02938771908492,  0.00000000000000 ]
      - [ -0.06351424515346, -0.00000000000000 ]
    - # atom 7
      - [  0.18736421114778,  0.00000000000000 ]
      - [  0.04052812364283,  0.00000000000000 ]
      - [ -0.24523863039956, -0.00000000000000 ]
    - # atom 8
      - [ -0.36547848894066, -0.00000000000000 ]
      - [ -0.14418873477376, -0.00000000000000 ]
      - [ -0.23062440757949, -0.00000000000000 ]
  - # 13
    frequency:    -1.3908764305
    eigenvector:
    - # atom 1
      - [ -0.01897150463811,  0.00000000000000 ]
      - [ -0.00230018578172, -0.00000000000000 ]
      - [ -0.24610404116541, -0.00000000000000 ]
    - # atom 2
      - [  0.21063138732938, -0.00000000000000 ]
      - [ -0.12737195421302,  0.00000000000000 ]
      - [  0.15916906471111,  0.00000000000000 ]
    - # atom 3
      - [ -0.39285947874766,  0.00000000000000 ]
      - [ -0.23394240715237, -0.00000000000000 ]
      - [ -0.30130419056393, -0.00000000000000 ]
    - # atom 4
      - [  0.12116671181684, -0.00000000000000 ]
      - [  0.13242272164594,  0.00000000000000 ]
      - [  0.22654810953191, -0.00000000000000 ]
    - # atom 5
      - [ -0.17137405769188,  0.00000000000000 ]
      - [ -0.32025394636201, -0.00000000000000 ]
      - [  0.38424347738751,  0.00000000000000 ]
    - # atom 6
      - [ -0.00192869576190, -0.00000000000000 ]
      - [ -0.10570422781773, -0.00000000000000 ]
      - [  0.09922444848255,  0.00000000000000 ]
    - # atom 7
      - [  0.23159841886368,  0.00000000000000 ]
      - [ -0.01826651442001,  0.00000000000000 ]
      - [ -0.15834227416668, -0.00000000000000 ]
    - # atom 8
      - [ -0.03834611859908,  0.00000000000000 ]
      - [ -0.16413068536043, -0.00000000000000 ]
      - [ -0.24839524215574, -0.00000000000000 ]
  - # 14
    frequency:     1.2889053024
    eigenvector:
    - # atom 1
      - [  0.10032203490300,  0.00000000000000 ]
      - [  0.10886774586296,  0.00000000000000 ]
      - [ -0.08237626688450, -0.00000000000000 ]
    - # atom 2
      - [ -0.10232470592177, -0.00000000000000 ]
      - [  0.13199868789058, -0.00000000000000 ]
      - [ -0.33988178327560,  0.00000000000000 ]
    - # atom 3
      - [ -0.03135884391759,  0.00000000000000 ]
      - [  0.34101935356783,  0.00000000000000 ]
      - [ -0.11134591766594, -0.00000000000000 ]
    - # atom 4
      - [ -0.38268794796000,  0.00000000000000 ]
      - [  0.09488816373571,  0.00000000000000 ]
      - [ -0.11981837142629, -0.00000000000000 ]
    - # atom 5
      - [ -0.42559165222424,  0.00000000000000 ]
      - [  0.10010077121005,  0.00000000000000 ]
      - [  0.21761351925392,  0.00000000000000 ]
    - # atom 6
      - [  0.21665326366749, -0.00000000000000 ]
      - [  0.23464296246074, -0.00000000000000 ]
      - [  0.11988206658265,  0.00000000000000 ]
    - # atom 7
      - [ -0.01318117194787,  0.00000000000000 ]
      - [  0.17762771400748,  0.00000000000000 ]
      - [ -0.29843482179282,  0.00000000000000 ]
    - # atom 8
      - [  0.10471788625541,  0.00000000000000 ]
      - [  0.12088962342206, -0.00000000000000 ]
      - [ -0.16479535890499,  0.00000000000000 ]
  - # 15
    frequency:     2.2363341124
    eigenvector:
    - # atom 1
      - [ -0.34849299446642,  0.00000000000000 ]
      - [ -0.43407238729981,  0.00000000000000 ]
      - [ -0.11582039078923, -0.00000000000000 ]
    - # atom 2
      - [  0.44098887214303,  0.00000000000000 ]
      - [ -0.03923870857652,  0.00000000000000 ]
      - [  0.15233633891215, -0.00000000000000 ]
    - # atom 3
      - [ -0.11167701943251, -0.00000000000000 ]
      - [  0.14851874400376,  0.00000000000000 ]
      - [ -0.01892247079800, -0.00000000000000 ]
    - # atom 4
      - [ -0.36371273167633, -0.00000000000000 ]
      - [ -0.05542183171334,  0.00000000000000 ]
      - [ -0.15417484824722, -0.00000000000000 ]
    - # atom 5
      - [  0.11963249401130,  0.00000000000000 ]
      - [  0.26031386052960,  0.00000000000000 ]
      - [  0.07151381071726,  0.00000000000000 ]
    - # atom 6
      - [ -0.29378075833171, -0.00000000000000 ]
      - [  0.09595863116890, -0.00000000000000 ]
      - [  0.07243190598579,  0.00000000000000 ]
    - # atom 7
      - [ -0.14505021455461,  0.00000000000000 ]
      - [ -0.19314958437182,  0.00000000000000 ]
      - [ -0.04606712228139, -0.00000000000000 ]
    - # atom 8
      - [  0.07809840386126,  0.00000000000000 ]
      - [  0.02827955886676, -0.00000000000000 ]
      - [ -0.09037435035092, -0.00000000000000 ]
  - # 16
    frequency:     3.0476905792
    eigenvector:
    - # atom 1
      - [  0.32735560688936,  0.00000000000000 ]
      - [  0.34097737242451,  0.00000000000000 ]
      - [ -0.04781511955277,  0.00000000000000 ]
    - # atom 2
      - [ -0.02874699175992, -0.00000000000000 ]
      - [ -0.15375610546254, -0.00000000000000 ]
      - [  0.34488057019152,  0.00000000000000 ]
    - # atom 3
      - [ -0.15868919582548, -0.00000000000000 ]
      - [ -0.12493884836441,  0.00000000000000 ]
      - [ -0.05614593268634,  0.00000000000000 ]
    - # atom 4
      - [ -0.22917415720645, -0.00000000000000 ]
      - [ -0.17515278954626, -0.00000000000000 ]
      - [ -0.18417072696224, -0.00000000000000 ]
    - # atom 5
      - [  0.27662278670023,  0.00000000000000 ]
      - [  0.31634748625804,  0.00000000000000 ]
      - [  0.10604256760309, -0.00000000000000 ]
    - # atom 6
      - [  0.31705579769311, -0.00000000000000 ]
      - [  0.01402963980605, -0.00000000000000 ]
      - [  0.00493663659465,  0.00000000000000 ]
    - # atom 7
      - [ -0.03713444622806,  0.00000000000000 ]
      - [ -0.10308845743341,  0.00000000000000 ]
      - [  0.15192530702180, -0.00000000000000 ]
    - # atom 8
      - [  0.31651476176571,  0.00000000000000 ]
      - [ -0.09919214560401, -0.00000000000000 ]
      - [ -0.19005090251477, -0.00000000000000 ]
  - # 17
    frequency:     3.8791435834
    eigenvector:
    - # atom 1
      - [ -0.06237781295228,  0.00000000000000 ]
      - [ -0.01723640940098,  0.00000000000000 ]
      - [ -0.17541915249147,  0.00000000000000 ]
    - # atom 2
      - [ -0.07834880175427, -0.00000000000000 ]
      - [ -0.31182321858152, -0.00000000000000 ]
      - [  0.06407783518393, -0.00000000000000 ]
    - # atom 3
      - [ -0.07905298445236, -0.00000000000000 ]
      - [  0.05415489784571, -0.00000000000000 ]
      - [  0.46676988117138,  0.00000000000000 ]
    - # atom 4
      - [  0.17657573854008,  0.00000000000000 ]
      - [ -0.32191201122718, -0.00000000000000 ]
      - [  0.01640953746000,  0.00000000000000 ]
    - # atom 5
      - [  0.17392231856540,  0.00000000000000 ]
      - [ -0.21899398265593,  0.00000000000000 ]
      - [  0.17849598788175,  0.00000000000000 ]
    - # atom 6
      - [ -0.03057384875979,  0.00000000000000 ]
      - [  0.20190816412168,  0.00000000000000 ]
      - [ -0.12797839210410, -0.00000000000000 ]
    - # atom 7
      - [ -0.08692651577360,  0.00000000000000 ]
      - [  0.25896599986351, -0.00000000000000 ]
      - [ -0.27887381701928, -0.00000000000000 ]
    - # atom 8
      - [  0.12583283109468, -0.00000000000000 ]
      - [  0.37454737653584,  0.00000000000000 ]
      - [ -0.13701026270497,  0.00000000000000 ]
  - # 18
    frequency:     3.9379440700
    eigenvector:
    - # atom 1
      - [ -0.34488544920715,  0.00000000000000 ]
      - [ -0.14434892412794, -0.00000000000000 ]
      - [  0.10598530068115, -0.00000000000000 ]
    - # atom 2
      - [ -0.24987114547871,  0.00000000000000 ]
      - [  0.12302069036917, -0.00000000000000 ]
      - [ -0.23189302637705,  0.00000000000000 ]
    - # atom 3
      - [ -0.25723804418664,  0.00000000000000 ]
      - [ -0.39012943412266,  0.00000000000000 ]
      - [ -0.14036907228821, -0.00000000000000 ]
    - # atom 4
      - [  0.03099609386618, -0.00000000000000 ]
      - [ -0.17102033619272,  0.00000000000000 ]
      - [ -0.27913583236796,  0.00000000000000 ]
    - # atom 5
      - [ -0.08503003194386,  0.00000000000000 ]
      - [ -0.00139125792940, -0.00000000000000 ]
      - [  0.18646986608443, -0.00000000000000 ]
    - # atom 6
      - [ -0.02340086103207, -0.00000000000000 ]
      - [  0.13058520046210,  0.00000000000000 ]
      - [ -0.11735825832856,  0.00000000000000 ]
    - # atom 7
      - [ -0.11985342230510, -0.00000000000000 ]
      - [  0.31347892927064, -0.00000000000000 ]
      - [  0.36925601509322,  0.00000000000000 ]
    - # atom 8
      - [  0.20150598085630, -0.00000000000000 ]
      - [ -0.09027737796460,  0.00000000000000 ]
      - [  0.01801182864097, -0.00000000000000 ]
  - # 19
    frequency:     4.1642979782
    eigenvector:
    - # atom 1
      - [  0.17795747655050,  0.00000000000000 ]
      - [ -0.07053867796880,  0.00000000000000 ]
      - [ -0.32890295394928,  0.00000000000000 ]
    - # atom 2
      - [  0.15238282579491,  0.00000000000000 ]
      - [  0.11533599918833, -0.00000000000000 ]
      - [ -0.10098476098201, -0.00000000000000 ]
    - # atom 3
      - [ -0.01467589804090,  0.00000000000000 ]
      - [  0.07770190403665, -0.00000000000000 ]
      - [ -0.07933971028911, -0.00000000000000 ]
    - # atom 4
      - [ -0.07332224529924, -0.00000000000000 ]
      - [  0.03804841109914,  0.00000000000000 ]
      - [ -0.07492639563040, -0.00000000000000 ]
    - # atom 5
      - [  0.27041892954704, -0.00000000000000 ]
      - [ -0.11938518236818, -0.00000000000000 ]
      - [ -0.05721235001969, -0.00000000000000 ]
    - # atom 6
      - [  0.13206329657162,  0.00000000000000 ]
      - [ -0.15688844838137, -0.00000000000000 ]
      - [  0.21064360855812, -0.00000000000000 ]
    - # atom 7
      - [ -0.22387773881057, -0.00000000000000 ]
      - [  0.37061405137675, -0.00000000000000 ]
      - [  0.37308640473554,  0.00000000000000 ]
    - # atom 8
      - [ -0.43089061315726,  0.00000000000000 ]
      - [  0.20165517924391, -0.00000000000000 ]
      - [ -0.23106918174055, -0.00000000000000 ]
  - # 20
    frequency:     4.2626728505
    eigenvector:
    - # atom 1
      - [  0.45640237492720,  0.00000000000000 ]
      - [ -0.04092377900787,  0.00000000000000 ]
      - [ -0.01790386790771,  0.00000000000000 ]
    - # atom 2
      - [  0.33182202553593, -0.00000000000000 ]
      - [  0.08218031881123, -0.00000000000000 ]
      - [ -0.14009517428302, -0.00000000000000 ]
    - # atom 3
      - [ -0.01046609170939,  0.00000000000000 ]
      - [ -0.04506027297823,  0.00000000000000 ]
      - [  0.01799015436571,  0.00000000000000 ]
    - # atom 4
      - [  0.26137593115194,  0.00000000000000 ]
      - [ -0.24141554965949, -0.00000000000000 ]
      - [ -0.32738394523499,  0.00000000000000 ]
    - # atom 5
      - [ -0.15430669146715,  0.00000000000000 ]
      - [ -0.05095803685449, -0.00000000000000 ]
      - [  0.24879631340978,  0.00000000000000 ]
    - # atom 6
      - [ -0.07333075924126, -0.00000000000000 ]
      - [  0.08179986106535,  0.00000000000000 ]
      - [ -0.13930064272669,  0.00000000000000 ]
    - # atom 7
      - [ -0.36827000602449,  0.00000000000000 ]
      - [ -0.15294440139918, -0.00000000000000 ]
      - [ -0.11755531914827, -0.00000000000000 ]
    - # atom 8
      - [ -0.14561507069535, -0.00000000000000 ]
      - [ -0.21112363828957,  0.00000000000000 ]
      - [  0.24203634993343, -0.00000000000000 ]
  - # 21
    frequency:     4.4668458628
    eigenvector:
    - # atom 1
      - [ -0.28433418144478,  0.00000000000000 ]
      - [  0.06181251322579,  0.00000000000000 ]
      - [  0.06748401616122,  0.00000000000000 ]
    - # atom 2
      - [ -0.12668841398833,  0.00000000000000 ]
      - [  0.12634103045231, -0.00000000000000 ]
      - [  0.27071430640744,  0.00000000000000 ]
    - # atom 3
      - [  0.20471519017335, -0.00000000000000 ]
      - [  0.29491110167587,  0.00000000000000 ]
      - [ -0.01289785130417, -0.00000000000000 ]
    - # atom 4
      - [  0.17126554907395, -0.00000000000000 ]
      - [ -0.03629641472039,  0.00000000000000 ]
      - [ -0.35404470121522, -0.00000000000000 ]
    - # atom 5
      - [  0.12322170833140, -0.00000000000000 ]
      - [  0.02525582146004, -0.00000000000000 ]
      - [  0.19677552621789,  0.00000000000000 ]
    - # atom 6
      - [  0.05085762895623,  0.00000000000000 ]
      - [ -0.35844404632625, -0.00000000000000 ]
      - [  0.05662261454195,  0.00000000000000 ]
    - # atom 7
      - [ -0.00278920445967,  0.00000000000000 ]
      - [  0.28511553401563, -0.00000000000000 ]
      - [ -0.27957035745191, -0.00000000000000 ]
    - # atom 8
      - [ -0.08406391244741,  0.00000000000000 ]
      - [ -0.39393349020776,  0.00000000000000 ]
      - [ -0.09955592881867, -0.00000000000000 ]
  - # 22
    frequency:     4.7151577955
    eigenvector:
    - # atom 1
      - [ -0.00699201142240,  0.00000000000000 ]
      - [ -0.07634776446281, -0.00000000000000 ]
      - [  0.36065818904174,  0.00000000000000 ]
    - # atom 2
      - [ -0.03933106599371, -0.00000000000000 ]
      - [ -0.36484256535230,  0.00000000000000 ]
      - [ -0.03176632816465, -0.00000000000000 ]
    - # atom 3
      - [ -0.22676135859057, -0.00000000000000 ]
      - [  0.03663818566407,  0.00000000000000 ]
      - [ -0.19160103039317,  0.00000000000000 ]
    - # atom 4
      - [  0.12502246423166,  0.00000000000000 ]
      - [  0.23911256323733,  0.00000000000000 ]
      - [  0.03630304046560,  0.00000000000000 ]
    - # atom 5
      - [  0.00895697495027,  0.00000000000000 ]
      - [ -0.08007934816718, -0.00000000000000 ]
      - [ -0.27551548568569, -0.00000000000000 ]
    - # atom 6
      - [  0.10541533800104, -0.00000000000000 ]
      - [ -0.07640888965069,  0.00000000000000 ]
      - [  0.19632484323666,  0.00000000000000 ]
    - # atom 7
      - [ -0.59811202464985, -0.00000000000000 ]
      - [  0.04300218898283,  0.00000000000000 ]
      - [ -0.19190588075247,  0.00000000000000 ]
    - # atom 8
      - [  0.13123761712411, -0.00000000000000 ]
      - [ -0.01190685814357, -0.00000000000000 ]
      - [ -0.11449147568735, -0.00000000000000 ]
  - # 23
    frequency:     4.8176965155
    eigenvector: